
     Program PWSCF v.6.3MaX starts on  7May2019 at 13:20:56 

     This program is part of the open-source Quantum ESPRESSO suite
     for quantum simulation of materials; please cite
         "P. Giannozzi et al., J. Phys.:Condens. Matter 21 395502 (2009);
         "P. Giannozzi et al., J. Phys.:Condens. Matter 29 465901 (2017);
          URL http://www.quantum-espresso.org", 
     in publications or presentations arising from this work. More details at
     http://www.quantum-espresso.org/quote

     Parallel version (MPI), running on    16 processors

     MPI processes distributed on     1 nodes
     R & G space division:  proc/nbgrp/npool/nimage =      16
     Reading input from nscf.in
     Message from routine read_cards :
     DEPRECATED: no units specified in CELL_PARAMETERS card

     Current dimensions of program PWSCF are:
     Max number of different atomic species (ntypx) = 10
     Max number of k-points (npk) =  40000
     Max angular momentum in pseudopotentials (lmaxx) =  3

     Atomic positions and unit cell read from directory:
     pwscf_output/pwscf.save/


     IMPORTANT: XC functional enforced from input :
     Exchange-correlation      = LDA ( 1  1  0  0 0 0)
     Any further DFT definition will be discarded
     Please, verify this is what you really want

               file C.BFD.upf: wavefunction(s)  0s 0p renormalized

     Subspace diagonalization in iterative solution of the eigenvalue problem:
     a serial algorithm will be used


     Parallelization info
     --------------------
     sticks:   dense  smooth     PW     G-vecs:    dense   smooth      PW
     Min          78      78     22                 1834     1834     279
     Max          79      79     23                 1837     1837     281
     Sum        1261    1261    361                29363    29363    4477



     bravais-lattice index     =            0
     lattice parameter (alat)  =       1.0000  a.u.
     unit-cell volume          =      76.7611 (a.u.)^3
     number of atoms/cell      =            2
     number of atomic types    =            1
     number of electrons       =         8.00
     number of Kohn-Sham states=            4
     kinetic-energy cutoff     =     200.0000  Ry
     charge density cutoff     =     800.0000  Ry
     Exchange-correlation      = LDA ( 1  1  0  0 0 0)

     celldm(1)=   6.746322  celldm(2)=   0.000000  celldm(3)=   0.000000
     celldm(4)=   0.000000  celldm(5)=   0.000000  celldm(6)=   0.000000

     crystal axes: (cart. coord. in units of alat)
               a(1) = (   3.373161   3.373161   0.000000 )  
               a(2) = (   0.000000   3.373161   3.373161 )  
               a(3) = (   3.373161   0.000000   3.373161 )  

     reciprocal axes: (cart. coord. in units 2 pi/alat)
               b(1) = (  0.148229  0.148229 -0.148229 )  
               b(2) = ( -0.148229  0.148229  0.148229 )  
               b(3) = (  0.148229 -0.148229  0.148229 )  


     PseudoPot. # 1 for C  read from file:
     ./C.BFD.upf
     MD5 check sum: 44213404c8404db625590c8337a04dfd
     Pseudo is Norm-conserving, Zval =  4.0
     Generated by new atomic code, or converted to UPF format
     Using radial grid of 2000 points,  1 beta functions with: 
                l(1) =   0

     atomic species   valence    mass     pseudopotential
        C              4.00    12.01100     C ( 1.00)

     No symmetry found



   Cartesian axes

     site n.     atom                  positions (alat units)
         1           C   tau(   1) = (   0.0000000   0.0000000   0.0000000  )
         2           C   tau(   2) = (   1.6865806   1.6865806   1.6865806  )

     number of k points=     4
                       cart. coord. in units 2pi/alat
        k(    1) = (   0.0000000   0.0000000   0.0000000), wk =   0.5000000
        k(    2) = (   0.1482289   0.0000000   0.0000000), wk =   0.5000000
        k(    3) = (   0.0000000   0.1482289   0.0000000), wk =   0.5000000
        k(    4) = (   0.0000000   0.0000000   0.1482289), wk =   0.5000000

     Dense  grid:    29363 G-vectors     FFT dimensions: (  45,  45,  45)

     Estimated max dynamical RAM per process >       0.81 MB

     Estimated total dynamical RAM >      12.90 MB

     The potential is recalculated from file :
     pwscf_output/pwscf.save/charge-density.dat

     Starting wfcs are    8 randomized atomic wfcs

     Band Structure Calculation
     Davidson diagonalization with overlap

     ethr =  1.25E-10,  avg # of iterations =  9.5

     total cpu time spent up to now is        0.8 secs

     End of band structure calculation

          k = 0.0000 0.0000 0.0000 (  3695 PWs)   bands (ev):

    -8.0883  13.2874  13.2874  13.2874

          k = 0.1482 0.0000 0.0000 (  3692 PWs)   bands (ev):

     0.5744   0.5745   6.9316   6.9316

          k = 0.0000 0.1482 0.0000 (  3692 PWs)   bands (ev):

     0.5744   0.5745   6.9316   6.9316

          k = 0.0000 0.0000 0.1482 (  3692 PWs)   bands (ev):

     0.5744   0.5745   6.9316   6.9316

     highest occupied level (ev):    13.2874

     Writing output data file pwscf.save/

     init_run     :      0.05s CPU      0.07s WALL (       1 calls)
     electrons    :      0.06s CPU      0.12s WALL (       1 calls)

     Called by init_run:
     wfcinit      :      0.00s CPU      0.00s WALL (       1 calls)
     potinit      :      0.00s CPU      0.00s WALL (       1 calls)
     hinit0       :      0.04s CPU      0.06s WALL (       1 calls)

     Called by electrons:
     c_bands      :      0.06s CPU      0.12s WALL (       1 calls)
     v_of_rho     :      0.00s CPU      0.00s WALL (       1 calls)

     Called by c_bands:
     init_us_2    :      0.00s CPU      0.00s WALL (       4 calls)
     cegterg      :      0.05s CPU      0.10s WALL (       4 calls)

     Called by sum_band:

     Called by *egterg:
     h_psi        :      0.05s CPU      0.10s WALL (      46 calls)
     g_psi        :      0.00s CPU      0.00s WALL (      38 calls)
     cdiaghg      :      0.00s CPU      0.00s WALL (      42 calls)

     Called by h_psi:
     h_psi:pot    :      0.05s CPU      0.10s WALL (      46 calls)
     h_psi:calbec :      0.00s CPU      0.00s WALL (      46 calls)
     vloc_psi     :      0.05s CPU      0.09s WALL (      46 calls)
     add_vuspsi   :      0.00s CPU      0.00s WALL (      46 calls)

     General routines
     calbec       :      0.00s CPU      0.00s WALL (      46 calls)
     fft          :      0.00s CPU      0.00s WALL (       4 calls)
     fftw         :      0.04s CPU      0.09s WALL (     378 calls)
     davcio       :      0.00s CPU      0.00s WALL (       8 calls)

     Parallel routines
     fft_scatt_xy :      0.00s CPU      0.00s WALL (     382 calls)
     fft_scatt_yz :      0.01s CPU      0.06s WALL (     382 calls)

     PWSCF        :     0.42s CPU         0.78s WALL


   This run was terminated on:  13:20:57   7May2019            

=------------------------------------------------------------------------------=
   JOB DONE.
=------------------------------------------------------------------------------=
