Discarded 6 diffused primitive functions, 0 contracted functions
#INFO: **** input file is /home/j1k/repositories/qmcpack_workshop_2019/day2_nexus/pyscf/02_pyscf_diamond_dft/runs/diamond_pp_dft_gamma/scf.py ****
#!/usr/bin/env python

from pyscf.pbc import df, scf


### generated system text ###
from numpy import array
from pyscf.pbc import gto as gto_loc
cell = gto_loc.Cell()
cell.a             = '''
                     1.78500000   1.78500000   0.00000000
                     0.00000000   1.78500000   1.78500000
                     1.78500000   0.00000000   1.78500000
                     '''
cell.basis         = 'bfd-vdz'
cell.dimension     = 3
cell.ecp           = 'bfd'
cell.unit          = 'A'
cell.atom          = '''
                     C    0.00000000   0.00000000   0.00000000
                     C    0.89250000   0.89250000   0.89250000
                     '''
cell.drop_exponent = 0.1
cell.verbose       = 5
cell.charge        = 0
cell.spin          = 0
cell.build()
kpts = array([
    [0.0, 0.0, 0.0]])
### end generated system text ###



gdf = df.GDF(cell,kpts)
gdf.auxbasis = 'weigend'
gdf.build()

mf = scf.KRKS(cell,kpts).density_fit()
mf.xc      ='b3lyp'
mf.tol     = 1e-10
mf.exxdiv  = 'ewald'
mf.with_df = gdf
mf.kernel()
#INFO: ******************** input file end ********************


System: ('Linux', 'viribus', '4.15.0-48-generic', '#51-Ubuntu SMP Wed Apr 3 08:28:49 UTC 2019', 'x86_64', 'x86_64')  Threads 16
Python 2.7.15rc1 (default, Nov 12 2018, 14:31:15) 
[GCC 7.3.0]
numpy 1.15.4  scipy 0.19.1
Date: Wed May  8 09:19:36 2019
PySCF version 1.5.4
PySCF path  /home/j1k/repositories/pyscf/pyscf
GIT HEAD      ref: refs/heads/master
GIT master branch  b10d0ee541f783312ac791d36702ff7a4bc1c637

[CONFIG] conf_file None
[INPUT] verbose = 5
[INPUT] max_memory = 4000 
[INPUT] num. atoms = 2
[INPUT] num. electrons = 8
[INPUT] charge = 0
[INPUT] spin (= nelec alpha-beta = 2S) = 0
[INPUT] symmetry False subgroup None
[INPUT] Mole.unit = A
[INPUT]  1 C      0.000000000000   0.000000000000   0.000000000000 AA    0.000000000000   0.000000000000   0.000000000000 Bohr
[INPUT]  2 C      0.892500000000   0.892500000000   0.892500000000 AA    1.686580566174   1.686580566174   1.686580566174 Bohr
[INPUT] ---------------- BASIS SET ---------------- 
[INPUT] l, kappa, [nprim/nctr], expnt,             c_1 c_2 ...
[INPUT] C
[INPUT] 0    0    [8    /1   ]  13.073594         -0.000705
                                6.541187          0.015176
                                3.272791          -0.121499
                                1.637494          -0.033512
                                0.819297          0.180113
                                0.409924          0.380369
                                0.2051            0.397529
                                0.102619          0.169852
[INPUT] 0    0    [1    /1   ]  0.127852             1
[INPUT] 1    0    [7    /1   ]  7.480076          0.021931
                                3.741035          0.054425
                                1.871016          0.112024
                                0.935757          0.210979
                                0.468003          0.289868
                                0.234064          0.302667
                                0.117063          0.191634
[INPUT] 1    0    [1    /1   ]  0.149161             1
[INPUT] 2    0    [1    /1   ]  0.561161             1

Ewald components = 1.76043198403506e-15, -36.7282245445858, 23.9525572427489
nuclear repulsion = -12.7756673018369
number of shells = 10
number of NR pGTOs = 76
number of NR cGTOs = 26
basis = bfd-vdz
ecp = bfd
CPU time:         1.07
lattice vectors  a1 [3.373161132, 3.373161132, 0.000000000]
                 a2 [0.000000000, 3.373161132, 3.373161132]
                 a3 [3.373161132, 0.000000000, 3.373161132]
dimension = 3
Cell volume = 76.7611
exp_to_discard = 0.1
rcut = 19.243077142883383 (nimgs = [5 5 5])
lattice sum = 911 cells
precision = 1e-08
pseudo = None
ke_cutoff = 210.04046224479163
    = [26 26 26] mesh (17576 PWs)
ew_eta = 2.01651
ew_cut = 3.4228673507667566 (nimgs = [1 1 1])


******** <class 'pyscf.pbc.df.df.GDF'> flags ********
mesh = [7 7 7] (343 PWs)
auxbasis = weigend
eta = 0.2
exp_to_discard = 0.1
_cderi_to_save = /home/j1k/repositories/qmcpack_workshop_2019/day2_nexus/pyscf/02_pyscf_diamond_dft/runs/diamond_pp_dft_gamma/tmpKNFQlE
len(kpts) = 1
num shells = 30, num cGTOs = 98
Drop 0 primitive fitting functions
make aux basis, num shells = 30, num cGTOs = 98
auxcell.rcut 12.824463399809424
Num uniq kpts 1


******** <class 'pyscf.pbc.dft.krks.KRKS'> flags ********
method = KRKS-KRHF-KSCF-SCF
initial guess = minao
damping factor = 0
level shift factor = 0
DIIS = <class 'pyscf.scf.diis.CDIIS'>
DIIS start cycle = 1
DIIS space = 8
SCF tol = 1e-07
SCF gradient tol = None
max. SCF cycles = 50
direct_scf = False
chkfile to save SCF result = /home/j1k/repositories/qmcpack_workshop_2019/day2_nexus/pyscf/02_pyscf_diamond_dft/runs/diamond_pp_dft_gamma/tmplET3Gu
max_memory 4000 MB (current use 89 MB)


******** PBC SCF flags ********
N kpts = 1
kpts = [[0. 0. 0.]]
Exchange divergence treatment (exxdiv) = ewald
Ewald components = 4.7681144649214e-42, -1.14272456961584, 0.802920014046314
    madelung (= occupied orbital energy shift) = 0.6796091111390576
    Total energy shift due to Ewald probe charge = -1/2 * Nelec*madelung/cell.vol = -2.71843644456
DF object = <pyscf.pbc.df.df.GDF object at 0x7f4558efcf90>
XC functionals = b3lyp
radial grids: 
    Treutler-Ahlrichs (JCP 102, 346 (M4)) radial grids
    
becke partition: Becke, JCP, 88, 2547 (1988)
pruning grids: <function nwchem_prune at 0x7f45286a9758>
grids dens level: 3
symmetrized grids: False
atomic radii adjust function: <function treutler_atomic_radii_adjust at 0x7f45286a9668>
Set gradient conv threshold to 0.000316228
cond(S) = [62153.80803905]
atom C rad-grids = 75, ang-grids = [ 50  50  50  50  50  50  50  50  50  50  50  50  50  50  50  50  50  50
  50  50  50  50  50  86  86  86  86  86  86  86  86  86  86 266 266 266
 266 266 266 266 302 302 302 302 302 302 302 302 302 302 302 302 302 302
 302 302 302 302 302 302 266 266 266 266 266 266 266 266 266 266 266 266
 266 266 266]
tot grids = 27572
cell vol = 76.7611121  sum(weights) = 77.1162614
    CPU time for setting up grids     10.12 sec, wall time      1.52 sec
nelec by numeric integration = 10.979210410893256
    CPU time for vxc      6.08 sec, wall time      0.54 sec
Ewald components = 4.7681144649214e-42, -1.14272456961584, 0.802920014046314
    CPU time for vj and vk      0.18 sec, wall time      0.03 sec
E1 = 3.5088031424811614  Ecoul = 0.8311076525296044  Exc = -6.650474081174018
Ewald components = 1.76043198403506e-15, -36.7282245445858, 23.9525572427489
init E= -15.0862305880002
    CPU time for initialize scf    398.56 sec, wall time     36.03 sec
HOMO = 0.450194803684  LUMO = 0.66829938089
     k-point                  mo_energy
   0 ( 0.000  0.000  0.000)   [-0.8302426   0.45018893  0.4501948   0.4501948 ] [0.66829938 0.66830004 0.66830004 0.91684477 1.32625041 1.48893956
 1.48893956 1.83488121 1.83488477 1.83488477 2.27610117 2.27610117
 2.27610341 3.09426884 3.23790118 3.23790572 3.23790572 3.27348435
 3.27348435 4.31869069 4.31869069 4.3186965 ]
nelec by numeric integration = 8.004305330103056
    CPU time for vxc      6.24 sec, wall time      0.55 sec
Ewald components = 4.7681144649214e-42, -1.14272456961584, 0.802920014046314
    CPU time for vj and vk      0.19 sec, wall time      0.03 sec
E1 = 4.703374374200041  Ecoul = 1.5549776014044914  Exc = -3.7943147272760767
Ewald components = 1.76043198403506e-15, -36.7282245445858, 23.9525572427489
cycle= 1 E= -10.3116300535085  delta_E= 4.77  |g|= 0.111  |ddm|=  4.5
    CPU time for cycle= 1      6.62 sec, wall time      0.59 sec
HOMO = 0.500754525718  LUMO = 0.823587828045
     k-point                  mo_energy
   0 ( 0.000  0.000  0.000)   [-0.31945339  0.50074918  0.50075453  0.50075453] [0.82358783 0.82358907 0.82358907 1.10611577 1.42952257 1.58542236
 1.58542236 1.94522369 1.94522674 1.94522674 2.40117514 2.40117514
 2.40117621 3.18151708 3.33506693 3.33507036 3.33507036 3.38057293
 3.38057293 4.42814115 4.42814115 4.42814459]
nelec by numeric integration = 8.004651779686185
    CPU time for vxc      6.12 sec, wall time      0.54 sec
Ewald components = 4.7681144649214e-42, -1.14272456961584, 0.802920014046314
    CPU time for vj and vk      0.17 sec, wall time      0.03 sec
E1 = 4.742386590325064  Ecoul = 1.491705428923565  Exc = -3.773539434798349
Ewald components = 1.76043198403506e-15, -36.7282245445858, 23.9525572427489
cycle= 2 E= -10.3151147173866  delta_E= -0.00348  |g|= 0.0137  |ddm|= 1.35
    CPU time for cycle= 2      6.49 sec, wall time      0.58 sec
HOMO = 0.493178988848  LUMO = 0.818691835487
     k-point                  mo_energy
   0 ( 0.000  0.000  0.000)   [-0.32348009  0.49317349  0.49317899  0.49317899] [0.81869184 0.81869301 0.81869301 1.099007   1.42846539 1.58275178
 1.58275178 1.94164325 1.94164632 1.94164632 2.3944107  2.3944107
 2.39441173 3.18217893 3.33234231 3.33234578 3.33234578 3.37634408
 3.37634408 4.42408666 4.42408666 4.42409012]
nelec by numeric integration = 8.004591312569543
    CPU time for vxc      6.37 sec, wall time      0.56 sec
Ewald components = 4.7681144649214e-42, -1.14272456961584, 0.802920014046314
    CPU time for vj and vk      0.19 sec, wall time      0.03 sec
E1 = 4.7380031029820815  Ecoul = 1.4989343270440783  Exc = -3.776422766696336
Ewald components = 1.76043198403506e-15, -36.7282245445858, 23.9525572427489
cycle= 3 E= -10.3151526385071  delta_E= -3.79e-05  |g|= 0.000838  |ddm|= 0.114
    CPU time for cycle= 3      6.76 sec, wall time      0.61 sec
HOMO = 0.49360281028  LUMO = 0.819037296882
     k-point                  mo_energy
   0 ( 0.000  0.000  0.000)   [-0.32322473  0.49359732  0.49360281  0.49360281] [0.8190373  0.81903847 0.81903847 1.09947292 1.42860627 1.58291264
 1.58291264 1.94188454 1.9418876  1.9418876  2.39474464 2.39474464
 2.39474567 3.18228715 3.33259076 3.33259422 3.33259422 3.37663383
 3.37663383 4.42438735 4.42438736 4.42439081]
nelec by numeric integration = 8.004592927835462
    CPU time for vxc      6.30 sec, wall time      0.56 sec
Ewald components = 4.7681144649214e-42, -1.14272456961584, 0.802920014046314
    CPU time for vj and vk      0.20 sec, wall time      0.03 sec
E1 = 4.7382637056457515  Ecoul = 1.4985693915440963  Exc = -3.7763186577174177
Ewald components = 1.76043198403506e-15, -36.7282245445858, 23.9525572427489
cycle= 4 E= -10.3151528623645  delta_E= -2.24e-07  |g|= 0.000134  |ddm|= 0.00831
    CPU time for cycle= 4      6.65 sec, wall time      0.60 sec
HOMO = 0.493604208601  LUMO = 0.819038259485
     k-point                  mo_energy
   0 ( 0.000  0.000  0.000)   [-0.32322401  0.49359872  0.49360421  0.49360421] [0.81903826 0.81903943 0.81903943 1.09947429 1.4286063  1.58291308
 1.58291308 1.94188509 1.94188815 1.94188815 2.39474578 2.39474578
 2.39474681 3.18228683 3.33259129 3.33259476 3.33259476 3.37663461
 3.37663461 4.42438808 4.42438808 4.42439154]
nelec by numeric integration = 8.00459294132015
    CPU time for vxc      6.41 sec, wall time      0.56 sec
Ewald components = 4.7681144649214e-42, -1.14272456961584, 0.802920014046314
    CPU time for vj and vk      0.22 sec, wall time      0.03 sec
E1 = 4.738264568984916  Ecoul = 1.4985680211030106  Exc = -3.776318154782638
Ewald components = 1.76043198403506e-15, -36.7282245445858, 23.9525572427489
cycle= 5 E= -10.3151528665316  delta_E= -4.17e-09  |g|= 5.18e-06  |ddm|= 0.000233
    CPU time for cycle= 5      6.82 sec, wall time      0.61 sec
HOMO = 0.493607619593  LUMO = 0.819040604647
     k-point                  mo_energy
   0 ( 0.000  0.000  0.000)   [-0.32322222  0.49360213  0.49360762  0.49360762] [0.8190406  0.81904178 0.81904178 1.09947762 1.42860644 1.58291418
 1.58291418 1.94188648 1.94188954 1.94188954 2.39474859 2.39474859
 2.39474962 3.18228616 3.3325926  3.33259607 3.33259607 3.37663655
 3.37663655 4.42438989 4.42438989 4.42439334]
nelec by numeric integration = 8.004592972057925
    CPU time for vxc      6.18 sec, wall time      0.55 sec
Ewald components = 4.7681144649214e-42, -1.14272456961584, 0.802920014046314
    CPU time for vj and vk      0.23 sec, wall time      0.03 sec
E1 = 4.738266664720115  Ecoul = 1.4985646944678328  Exc = -3.776316923889658
Ewald components = 1.76043198403506e-15, -36.7282245445858, 23.9525572427489
Extra cycle  E= -10.3151528665386  delta_E= -7e-12  |g|= 8.67e-07  |ddm|= 3.81e-05
    CPU time for scf_cycle    438.49 sec, wall time     39.62 sec
    CPU time for SCF    438.55 sec, wall time     39.63 sec
converged SCF energy = -10.3151528665386
