#INFO: **** input file is /home/abenali/Work/WorkShop/qmcpack_workshop_2019/day1_pyscf_molecules/H2O/DFT_PP-NCSU/ref_files/h2o_ncsu_dft.py ****
#!/usr/bin/env python

from pyscf import gto
from pyscf import scf, dft, df

mol = gto.Mole()
mol.verbose = 5
mol.atom =''' 
  H             0.00000000       0.75720000      -0.46920000
  H             0.00000000      -0.75720000      -0.46920000
  O             0.00000000       0.00000000       0.11730000
 '''
mol.unit='A'
mol.basis = {'H': gto.parse('''
H S
23.843185 0.00411490
10.212443 0.01046440
4.374164 0.02801110
1.873529 0.07588620
0.802465 0.18210620
0.343709 0.34852140
0.147217 0.37823130
0.063055 0.11642410
H S
0.029292 1.00000000
H S
0.091791 1.00000000
H S
0.287637 1.00000000
H P
0.106105 1.00000000
H P
0.393954 1.00000000
H P
1.462694 1.00000000
H D
0.295883 1.00000000
H D
1.065841 1.00000000
'''),
'O': gto.parse('''
O S
54.775216 -0.0012444
25.616801 0.0107330
11.980245 0.0018889
6.992317 -0.1742537
2.620277 0.0017622
1.225429 0.3161846
0.577797 0.4512023
0.268022 0.3121534
0.125346 0.0511167
O S
1.686633 1.0000000
O S
0.237997 1.0000000
O P
22.217266 0.0104866
10.74755 0.0366435
5.315785 0.0803674
2.660761 0.1627010
1.331816 0.2377791
0.678626 0.2811422
0.333673 0.2643189
0.167017 0.1466014
0.083598 0.0458145
O P
0.600621 1.0000000
O P
0.184696 1.0000000
O D
2.404278 1.0000000
O D
0.669340 1.0000000
O F
1.423104 1.0000000
''')}
mol.ecp = {'O': gto.basis.parse_ecp('''
O nelec 2
O ul
1 12.30997 6.000000
3 14.76962 73.85984
2 13.71419 -47.87600
O S
2 13.65512 85.86406
'''),
'H':gto.basis.parse_ecp('''
H nelec 0
H ul
1 21.24359508259891 1.00000000000000
3 21.24359508259891 21.24359508259891
2 21.77696655044365 -10.85192405303825
H S
2 1.000000000000000 0.00000000000000
''')
}



mol.spin=0 #Value of S where the spin multiplicity is 2S+1
mol.build()



#Hartree Fock
#mf = scf.ROHF(mol)

#DFT
mf = dft.ROKS(mol)
mf.xc ='b3lyp' 

e_scf=mf.kernel()

#Section for QMCPACK
title="H2O_DFT_NCSU"
from PyscfToQmcpack import savetoqmcpack
savetoqmcpack(mol,mf,title=title)

#INFO: ******************** input file end ********************


System: ('Linux', 'abenali', '4.15.0-48-generic', '#51-Ubuntu SMP Wed Apr 3 08:28:49 UTC 2019', 'x86_64', 'x86_64')  Threads 8
Python 2.7.15rc1 (default, Nov 12 2018, 14:31:15) 
[GCC 7.3.0]
numpy 1.14.0  scipy 1.0.0
Date: Sun May 12 01:52:09 2019
PySCF version 1.6.1
PySCF path  /home/abenali/Work/src/pyscf/pyscf
GIT ORIG_HEAD 2cd183cacbe44dc607e325b3aab196fd09b24068
GIT HEAD      ref: refs/heads/dev
GIT dev branch  09e76a37bba1258f387edc9bb3c45eb68014f488

[CONFIG] conf_file None
[INPUT] verbose = 5
[INPUT] max_memory = 4000 
[INPUT] num. atoms = 3
[INPUT] num. electrons = 8
[INPUT] charge = 0
[INPUT] spin (= nelec alpha-beta = 2S) = 0
[INPUT] symmetry False subgroup None
[INPUT] Mole.unit = A
[INPUT]  1 H      0.000000000000   0.757200000000  -0.469200000000 AA    0.000000000000   1.430900621521  -0.886659497646 Bohr
[INPUT]  2 H      0.000000000000  -0.757200000000  -0.469200000000 AA    0.000000000000  -1.430900621521  -0.886659497646 Bohr
[INPUT]  3 O      0.000000000000   0.000000000000   0.117300000000 AA    0.000000000000   0.000000000000   0.221664874411 Bohr
[INPUT] ---------------- BASIS SET ---------------- 
[INPUT] l, kappa, [nprim/nctr], expnt,             c_1 c_2 ...
[INPUT] H
[INPUT] 0    0    [8    /1   ]  23.843185         0.0041149
                                10.212443         0.0104644
                                4.374164          0.0280111
                                1.873529          0.0758862
                                0.802465          0.1821062
                                0.343709          0.3485214
                                0.147217          0.3782313
                                0.063055          0.1164241
[INPUT] 0    0    [1    /1   ]  0.029292             1
[INPUT] 0    0    [1    /1   ]  0.091791             1
[INPUT] 0    0    [1    /1   ]  0.287637             1
[INPUT] 1    0    [1    /1   ]  0.106105             1
[INPUT] 1    0    [1    /1   ]  0.393954             1
[INPUT] 1    0    [1    /1   ]  1.462694             1
[INPUT] 2    0    [1    /1   ]  0.295883             1
[INPUT] 2    0    [1    /1   ]  1.065841             1
[INPUT] O
[INPUT] 0    0    [9    /1   ]  54.775216         -0.0012444
                                25.616801         0.010733
                                11.980245         0.0018889
                                6.992317          -0.1742537
                                2.620277          0.0017622
                                1.225429          0.3161846
                                0.577797          0.4512023
                                0.268022          0.3121534
                                0.125346          0.0511167
[INPUT] 0    0    [1    /1   ]  1.686633             1
[INPUT] 0    0    [1    /1   ]  0.237997             1
[INPUT] 1    0    [9    /1   ]  22.217266         0.0104866
                                10.74755          0.0366435
                                5.315785          0.0803674
                                2.660761          0.162701
                                1.331816          0.2377791
                                0.678626          0.2811422
                                0.333673          0.2643189
                                0.167017          0.1466014
                                0.083598          0.0458145
[INPUT] 1    0    [1    /1   ]  0.600621             1
[INPUT] 1    0    [1    /1   ]  0.184696             1
[INPUT] 2    0    [1    /1   ]  2.404278             1
[INPUT] 2    0    [1    /1   ]  0.66934              1
[INPUT] 3    0    [1    /1   ]  1.423104             1

nuclear repulsion = 6.97950789135728
number of shells = 27
number of NR pGTOs = 121
number of NR cGTOs = 75
basis = {'H': [[0, [23.843185, 0.0041149], [10.212443, 0.0104644], [4.374164, 0.0280111], [1.873529, 0.0758862], [0.802465, 0.1821062], [0.343709, 0.3485214], [0.147217, 0.3782313], [0.063055, 0.1164241]], [0, [0.029292, 1.0]], [0, [0.091791, 1.0]], [0, [0.287637, 1.0]], [1, [0.106105, 1.0]], [1, [0.393954, 1.0]], [1, [1.462694, 1.0]], [2, [0.295883, 1.0]], [2, [1.065841, 1.0]]], 'O': [[0, [54.775216, -0.0012444], [25.616801, 0.010733], [11.980245, 0.0018889], [6.992317, -0.1742537], [2.620277, 0.0017622], [1.225429, 0.3161846], [0.577797, 0.4512023], [0.268022, 0.3121534], [0.125346, 0.0511167]], [0, [1.686633, 1.0]], [0, [0.237997, 1.0]], [1, [22.217266, 0.0104866], [10.74755, 0.0366435], [5.315785, 0.0803674], [2.660761, 0.162701], [1.331816, 0.2377791], [0.678626, 0.2811422], [0.333673, 0.2643189], [0.167017, 0.1466014], [0.083598, 0.0458145]], [1, [0.600621, 1.0]], [1, [0.184696, 1.0]], [2, [2.404278, 1.0]], [2, [0.66934, 1.0]], [3, [1.423104, 1.0]]]}
ecp = {'H': [0, [[-1, [[], [[21.24359508259891, 1.0]], [[21.77696655044365, -10.85192405303825]], [[21.24359508259891, 21.24359508259891]]]], [0, [[], [], [[1.0, 0.0]], []]]]], 'O': [2, [[-1, [[], [[12.30997, 6.0]], [[13.71419, -47.876]], [[14.76962, 73.85984]]]], [0, [[], [], [[13.65512, 85.86406]], []]]]]}
CPU time:         0.50


******** <class 'pyscf.dft.roks.ROKS'> ********
method = ROKS-ROHF-RHF
initial guess = minao
damping factor = 0
level shift factor = 0
DIIS = <class 'pyscf.scf.diis.CDIIS'>
DIIS start cycle = 1
DIIS space = 8
SCF tol = 1e-09
SCF gradient tol = None
max. SCF cycles = 50
direct_scf = True
direct_scf_tol = 1e-13
chkfile to save SCF result = /home/abenali/Work/WorkShop/qmcpack_workshop_2019/day1_pyscf_molecules/H2O/DFT_PP-NCSU/ref_files/tmpLyS8Ih
max_memory 4000 MB (current use 62 MB)
num. doubly occ = 4  num. singly occ = 0
XC functionals = b3lyp
radial grids: 
    Treutler-Ahlrichs (JCP 102, 346 (M4)) radial grids
    
becke partition: Becke, JCP, 88, 2547 (1988)
pruning grids: <function nwchem_prune at 0x14783fbd9b90>
grids dens level: 3
symmetrized grids: False
atomic radii adjust function: <function treutler_atomic_radii_adjust at 0x14783fbd9aa0>
Set gradient conv threshold to 3.16228e-05
cond(S) = 8665.686542570806
atom H rad-grids = 50, ang-grids = [ 50  50  50  50  50  50  50  50  50  50  50  50  50  50  86  86  86  86
 266 266 266 266 302 302 302 302 302 302 302 302 302 302 302 302 302 266
 266 266 266 266 266 266 266 266 266 266 266 266 266 266]
atom O rad-grids = 75, ang-grids = [ 50  50  50  50  50  50  50  50  50  50  50  50  50  50  50  50  50  50
  50  50  50  50  86  86  86  86  86  86  86  86  86 266 266 266 266 266
 266 266 302 302 302 302 302 302 302 302 302 302 302 302 302 302 302 302
 302 302 302 266 266 266 266 266 266 266 266 266 266 266 266 266 266 266
 266 266 266]
tot grids = 34310
Drop grids 2161
    CPU time for setting up grids      0.64 sec, wall time      0.09 sec
nelec by numeric integration = [3.99998532 3.99998532]
    CPU time for vxc      2.59 sec, wall time      0.33 sec
E1 = -40.31974259530243  Ecoul = 20.3452568497902  Exc = -4.023245920128709
init E= -17.0182237742837
    CPU time for initialize scf      5.29 sec, wall time      0.72 sec
  HOMO = -0.44230121825978  LUMO = -0.038857391133482
  Roothaan mo_energy =
[-1.19660491e+00 -6.36895199e-01 -5.21590364e-01 -4.42301218e-01
 -3.88573911e-02  1.69140339e-02  9.09610659e-02  1.14440614e-01
  1.37961170e-01  1.46707309e-01  1.98966484e-01  2.08212538e-01
  2.11630008e-01  3.44517711e-01  4.09514840e-01  4.17704932e-01
  4.68076740e-01  5.20153540e-01  6.52187075e-01  7.15618324e-01
  7.19276400e-01  8.14406871e-01  8.31960326e-01  8.55510093e-01
  8.97735922e-01  9.06833872e-01  9.10791690e-01  9.93754724e-01
  1.12079921e+00  1.15572616e+00  1.17577901e+00  1.23138664e+00
  1.25422391e+00  1.48277074e+00  1.62659088e+00  1.65122363e+00
  1.90485496e+00  1.96464913e+00  2.14474472e+00  2.20925440e+00
  2.36641970e+00  2.47403787e+00  2.60967235e+00  3.21405721e+00
  3.51887958e+00  3.62412306e+00  3.72746326e+00  3.74278426e+00
  3.74541658e+00  3.79016978e+00  3.80757818e+00  3.88293082e+00
  3.96741601e+00  4.04630033e+00  4.06102982e+00  4.13295108e+00
  4.13497600e+00  4.34063298e+00  4.63276673e+00  4.68528722e+00
  4.82082003e+00  5.00158580e+00  5.49401858e+00  6.16044891e+00
  6.37174610e+00  6.51658042e+00  6.59024789e+00  6.65750177e+00
  6.70748310e+00  6.83576761e+00  7.01516221e+00  7.22265008e+00
  7.39430055e+00  7.53983551e+00  2.29451621e+01]
nelec by numeric integration = [4.00000012 4.00000012]
    CPU time for vxc      2.09 sec, wall time      0.27 sec
E1 = -42.67263314577092  Ecoul = 23.08398436722761  Exc = -4.520319239631564
cycle= 1 E= -17.1294601268176  delta_E= -0.111  |g|= 0.782  |ddm|= 2.33
    CPU time for cycle= 1      2.67 sec, wall time      0.34 sec
  HOMO = -0.141999643607512  LUMO = -0.00642946386070399
  Roothaan mo_energy =
[-8.54234055e-01 -4.03906170e-01 -2.16170901e-01 -1.41999644e-01
 -6.42946386e-03  3.51766897e-02  1.35944014e-01  1.65419861e-01
  1.74914228e-01  1.83145941e-01  2.24560025e-01  2.35803541e-01
  2.54224067e-01  3.53569107e-01  4.83246269e-01  4.98966232e-01
  5.92335485e-01  6.41807523e-01  7.48158518e-01  7.61591531e-01
  7.76351430e-01  8.66938632e-01  8.73210054e-01  9.07967404e-01
  9.21552196e-01  9.27753191e-01  9.44136310e-01  1.01204916e+00
  1.13631321e+00  1.20818215e+00  1.24923573e+00  1.28402405e+00
  1.35251287e+00  1.55208999e+00  1.73167749e+00  1.75291155e+00
  2.13878559e+00  2.21162843e+00  2.25777121e+00  2.42859245e+00
  2.57808592e+00  2.61424219e+00  2.78085945e+00  3.56242721e+00
  3.68351858e+00  3.72057533e+00  3.78762356e+00  3.79961253e+00
  3.83104650e+00  3.84973163e+00  3.92706304e+00  4.02664723e+00
  4.06431562e+00  4.12611226e+00  4.15856974e+00  4.23613721e+00
  4.26900931e+00  4.49935834e+00  4.79123655e+00  4.83336135e+00
  4.99861039e+00  5.23620626e+00  5.79395803e+00  6.39887633e+00
  6.65783797e+00  6.79373947e+00  6.89131588e+00  7.13040430e+00
  7.17124858e+00  7.28637874e+00  7.37095305e+00  7.59082650e+00
  7.68508336e+00  7.92220603e+00  2.35413519e+01]
nelec by numeric integration = [4.00000007 4.00000007]
    CPU time for vxc      2.06 sec, wall time      0.26 sec
E1 = -38.81251142183986  Ecoul = 18.643296062206474  Exc = -3.7195073865343486
cycle= 2 E= -16.9092148548105  delta_E= 0.22  |g|=  1.3  |ddm|= 1.47
    CPU time for cycle= 2      2.46 sec, wall time      0.32 sec
  HOMO = -0.321929731123573  LUMO = -0.0230036494347227
  Roothaan mo_energy =
[-1.03422855e+00 -5.42122833e-01 -3.95038248e-01 -3.21929731e-01
 -2.30036494e-02  2.58064929e-02  1.08565351e-01  1.37162073e-01
  1.51074695e-01  1.57425115e-01  2.13630689e-01  2.14073905e-01
  2.28425650e-01  3.47240107e-01  4.41440063e-01  4.43947758e-01
  5.20725658e-01  5.76678827e-01  6.98539689e-01  7.25162920e-01
  7.33092655e-01  8.35589342e-01  8.45018201e-01  8.93957914e-01
  8.96002336e-01  9.07937114e-01  9.11769500e-01  9.96299543e-01
  1.12098367e+00  1.18572870e+00  1.19051145e+00  1.26207248e+00
  1.27501606e+00  1.50650779e+00  1.66838205e+00  1.68566059e+00
  2.00225800e+00  2.07334002e+00  2.19113746e+00  2.30226717e+00
  2.45241006e+00  2.52687504e+00  2.67625758e+00  3.35445773e+00
  3.60112411e+00  3.65406008e+00  3.75510065e+00  3.76794736e+00
  3.77682350e+00  3.80681029e+00  3.85853334e+00  3.89234288e+00
  4.00500034e+00  4.07688566e+00  4.08245474e+00  4.16767821e+00
  4.18281019e+00  4.39918829e+00  4.71266871e+00  4.71546875e+00
  4.88255143e+00  5.09321832e+00  5.61928421e+00  6.25338878e+00
  6.48938859e+00  6.62698782e+00  6.71327114e+00  6.85318002e+00
  6.89914918e+00  7.02102137e+00  7.16319005e+00  7.36579379e+00
  7.51826579e+00  7.68274912e+00  2.31708688e+01]
nelec by numeric integration = [4.00000012 4.00000012]
    CPU time for vxc      2.07 sec, wall time      0.26 sec
E1 = -41.37483451507226  Ecoul = 21.371201089837534  Exc = -4.21510387858182
cycle= 3 E= -17.2392294124593  delta_E= -0.33  |g|= 0.0527  |ddm|= 0.873
    CPU time for cycle= 3      2.46 sec, wall time      0.32 sec
  HOMO = -0.322092339001154  LUMO = -0.0209577532385246
  Roothaan mo_energy =
[-1.02838969e+00 -5.36187447e-01 -3.96260121e-01 -3.22092339e-01
 -2.09577532e-02  2.66685239e-02  1.10914210e-01  1.39686417e-01
  1.52712209e-01  1.59326411e-01  2.15457600e-01  2.15569614e-01
  2.30030051e-01  3.48174568e-01  4.45871306e-01  4.49083286e-01
  5.23179046e-01  5.79161248e-01  7.00940831e-01  7.31440655e-01
  7.37895386e-01  8.41358718e-01  8.49396435e-01  8.96151727e-01
  8.99766994e-01  9.12755516e-01  9.15570073e-01  1.00014363e+00
  1.12431382e+00  1.18957378e+00  1.19449638e+00  1.26702903e+00
  1.27730215e+00  1.51379509e+00  1.67582034e+00  1.69062648e+00
  2.00654472e+00  2.07699144e+00  2.19592724e+00  2.30665681e+00
  2.45802335e+00  2.53445264e+00  2.68280531e+00  3.35349825e+00
  3.60755275e+00  3.66346573e+00  3.76708772e+00  3.77682063e+00
  3.78954196e+00  3.81696531e+00  3.86130987e+00  3.90297875e+00
  4.01221822e+00  4.08578337e+00  4.09500917e+00  4.17629080e+00
  4.19180013e+00  4.40578714e+00  4.72090408e+00  4.72325821e+00
  4.89114581e+00  5.10045903e+00  5.62516876e+00  6.26215989e+00
  6.49486594e+00  6.63215384e+00  6.71931346e+00  6.85085056e+00
  6.89722548e+00  7.01890809e+00  7.16737377e+00  7.36716110e+00
  7.52381472e+00  7.68556685e+00  2.31586705e+01]
nelec by numeric integration = [4.00000012 4.00000012]
    CPU time for vxc      2.10 sec, wall time      0.27 sec
E1 = -41.43477422560376  Ecoul = 21.444157515315762  Exc = -4.228518263904721
cycle= 4 E= -17.2396270828354  delta_E= -0.000398  |g|= 0.00398  |ddm|= 0.0459
    CPU time for cycle= 4      2.29 sec, wall time      0.29 sec
  HOMO = -0.322565884449354  LUMO = -0.021140098875291
  Roothaan mo_energy =
[-1.02897655e+00 -5.36483977e-01 -3.96141784e-01 -3.22565884e-01
 -2.11400989e-02  2.66030392e-02  1.10736837e-01  1.39589892e-01
  1.52522221e-01  1.59243831e-01  2.15438637e-01  2.15485993e-01
  2.29983889e-01  3.48021228e-01  4.45724336e-01  4.48881239e-01
  5.23180388e-01  5.79227804e-01  7.01143938e-01  7.31099670e-01
  7.37566392e-01  8.41248717e-01  8.49433432e-01  8.96153148e-01
  8.99668182e-01  9.12652926e-01  9.15461542e-01  1.00008843e+00
  1.12426518e+00  1.18948732e+00  1.19438591e+00  1.26682172e+00
  1.27743836e+00  1.51363988e+00  1.67564246e+00  1.69054442e+00
  2.00638669e+00  2.07707599e+00  2.19583023e+00  2.30674908e+00
  2.45787350e+00  2.53427565e+00  2.68288396e+00  3.35300337e+00
  3.60745316e+00  3.66321985e+00  3.76678736e+00  3.77668416e+00
  3.78909589e+00  3.81670192e+00  3.86131021e+00  3.90277182e+00
  4.01208083e+00  4.08553549e+00  4.09452237e+00  4.17625476e+00
  4.19149764e+00  4.40561571e+00  4.72068019e+00  4.72306307e+00
  4.89057572e+00  5.10023845e+00  5.62500624e+00  6.26160725e+00
  6.49478386e+00  6.63223437e+00  6.71888743e+00  6.85076902e+00
  6.89715285e+00  7.01907959e+00  7.16689167e+00  7.36746843e+00
  7.52383358e+00  7.68511011e+00  2.31579846e+01]
nelec by numeric integration = [4.00000012 4.00000012]
    CPU time for vxc      1.92 sec, wall time      0.25 sec
E1 = -41.43558318443947  Ecoul = 21.445210847178085  Exc = -4.228765344192481
cycle= 5 E= -17.2396297900966  delta_E= -2.71e-06  |g|= 0.00128  |ddm|= 0.00341
    CPU time for cycle= 5      2.07 sec, wall time      0.26 sec
  HOMO = -0.322505661801615  LUMO = -0.0211284111669307
  Roothaan mo_energy =
[-1.02886240e+00 -5.36395228e-01 -3.96108587e-01 -3.22505662e-01
 -2.11284112e-02  2.66085519e-02  1.10763208e-01  1.39616879e-01
  1.52538951e-01  1.59238318e-01  2.15426885e-01  2.15459695e-01
  2.29956082e-01  3.48002222e-01  4.45748545e-01  4.48880767e-01
  5.23163941e-01  5.79179455e-01  7.01116110e-01  7.31143264e-01
  7.37612363e-01  8.41238234e-01  8.49421572e-01  8.96136890e-01
  8.99673590e-01  9.12654881e-01  9.15462585e-01  1.00008938e+00
  1.12426799e+00  1.18949797e+00  1.19438911e+00  1.26683183e+00
  1.27741589e+00  1.51364140e+00  1.67566544e+00  1.69058291e+00
  2.00640938e+00  2.07705578e+00  2.19583027e+00  2.30672126e+00
  2.45789753e+00  2.53430086e+00  2.68287645e+00  3.35313527e+00
  3.60749465e+00  3.66323594e+00  3.76681703e+00  3.77672082e+00
  3.78913499e+00  3.81671801e+00  3.86138105e+00  3.90277863e+00
  4.01214426e+00  4.08555433e+00  4.09455955e+00  4.17624958e+00
  4.19152715e+00  4.40571816e+00  4.72071582e+00  4.72311426e+00
  4.89067458e+00  5.10028571e+00  5.62503904e+00  6.26170213e+00
  6.49481788e+00  6.63222928e+00  6.71896914e+00  6.85094181e+00
  6.89732720e+00  7.01919096e+00  7.16703152e+00  7.36750167e+00
  7.52387657e+00  7.68527709e+00  2.31584533e+01]
nelec by numeric integration = [4.00000012 4.00000012]
    CPU time for vxc      1.99 sec, wall time      0.25 sec
E1 = -41.43361486130573  Ecoul = 21.44281459760453  Exc = -4.228337675360851
cycle= 6 E= -17.2396300477048  delta_E= -2.58e-07  |g|= 4.19e-05  |ddm|= 0.00115
    CPU time for cycle= 6      2.47 sec, wall time      0.31 sec
  HOMO = -0.322507247678216  LUMO = -0.0211274307235494
  Roothaan mo_energy =
[-1.02886269e+00 -5.36390680e-01 -3.96105442e-01 -3.22507248e-01
 -2.11274307e-02  2.66095217e-02  1.10762920e-01  1.39616596e-01
  1.52541006e-01  1.59240076e-01  2.15430838e-01  2.15463497e-01
  2.29958471e-01  3.48003190e-01  4.45748343e-01  4.48882228e-01
  5.23168224e-01  5.79184872e-01  7.01122529e-01  7.31139959e-01
  7.37610318e-01  8.41240701e-01  8.49422883e-01  8.96140419e-01
  8.99673182e-01  9.12654966e-01  9.15462437e-01  1.00008979e+00
  1.12426844e+00  1.18949747e+00  1.19438968e+00  1.26683158e+00
  1.27741941e+00  1.51364149e+00  1.67566639e+00  1.69058280e+00
  2.00641412e+00  2.07706209e+00  2.19583209e+00  2.30672473e+00
  2.45789768e+00  2.53430071e+00  2.68287964e+00  3.35312828e+00
  3.60749388e+00  3.66323418e+00  3.76681566e+00  3.77672011e+00
  3.78913243e+00  3.81671584e+00  3.86137982e+00  3.90277781e+00
  4.01214441e+00  4.08555362e+00  4.09455634e+00  4.17625021e+00
  4.19152786e+00  4.40571837e+00  4.72071771e+00  4.72311317e+00
  4.89067130e+00  5.10028850e+00  5.62504252e+00  6.26170288e+00
  6.49482022e+00  6.63222981e+00  6.71897031e+00  6.85094110e+00
  6.89732703e+00  7.01918965e+00  7.16703094e+00  7.36750073e+00
  7.52387771e+00  7.68527409e+00  2.31584392e+01]
nelec by numeric integration = [4.00000012 4.00000012]
    CPU time for vxc      2.08 sec, wall time      0.26 sec
E1 = -41.43367173752676  Ecoul = 21.44288656415883  Exc = -4.228352766318458
cycle= 7 E= -17.2396300483291  delta_E= -6.24e-10  |g|= 7.82e-06  |ddm|= 7.38e-05
    CPU time for cycle= 7      2.44 sec, wall time      0.31 sec
  HOMO = -0.322504534547877  LUMO = -0.0211266447276205
  Roothaan mo_energy =
[-1.02885908e+00 -5.36387123e-01 -3.96102426e-01 -3.22504535e-01
 -2.11266447e-02  2.66099065e-02  1.10763827e-01  1.39617744e-01
  1.52542052e-01  1.59240824e-01  2.15431564e-01  2.15463786e-01
  2.29958832e-01  3.48003520e-01  4.45750156e-01  4.48883547e-01
  5.23169087e-01  5.79185388e-01  7.01123319e-01  7.31141728e-01
  7.37612059e-01  8.41242016e-01  8.49423904e-01  8.96141343e-01
  8.99674155e-01  9.12656007e-01  9.15463365e-01  1.00009066e+00
  1.12426932e+00  1.18949861e+00  1.19439100e+00  1.26683276e+00
  1.27742044e+00  1.51364307e+00  1.67566837e+00  1.69058484e+00
  2.00641617e+00  2.07706378e+00  2.19583367e+00  2.30672649e+00
  2.45790000e+00  2.53430313e+00  2.68288193e+00  3.35313151e+00
  3.60749647e+00  3.66323644e+00  3.76681820e+00  3.77672262e+00
  3.78913513e+00  3.81671810e+00  3.86138276e+00  3.90277993e+00
  4.01214714e+00  4.08555578e+00  4.09455900e+00  4.17625237e+00
  4.19153021e+00  4.40572167e+00  4.72072037e+00  4.72311577e+00
  4.89067439e+00  5.10029130e+00  5.62504536e+00  6.26170619e+00
  6.49482310e+00  6.63223254e+00  6.71897355e+00  6.85094534e+00
  6.89733134e+00  7.01919350e+00  7.16703495e+00  7.36750403e+00
  7.52388099e+00  7.68527838e+00  2.31584456e+01]
nelec by numeric integration = [4.00000012 4.00000012]
    CPU time for vxc      2.09 sec, wall time      0.27 sec
E1 = -41.433644964021084  Ecoul = 21.44285381113469  Exc = -4.22834678679697
Extra cycle  E= -17.2396300483261  delta_E= 3.03e-12  |g|= 9.28e-06  |ddm|= 1.54e-05
    CPU time for scf_cycle     24.59 sec, wall time      3.19 sec
    CPU time for SCF     24.60 sec, wall time      3.19 sec
converged SCF energy = -17.2396300483261
Using Python 2.x
Wavefunction successfully saved to QMCPACK HDF5 Format
Use: "convert4qmc -pyscf  H2O_DFT_NCSU.h5" to generate QMCPACK input files
