  Input file(s): Opt.xml 

=====================================================
                    QMCPACK 3.7.9

       (c) Copyright 2003-  QMCPACK developers

                    Please cite:
 J. Kim et al. J. Phys. Cond. Mat. 30 195901 (2018)
      https://doi.org/10.1088/1361-648X/aab9c3

  Git branch: develop
  Last git commit: f95f17d2abb3cf3304553f3fd54aac3c712a1278
  Last git commit date: Thu May 9 13:52:50 2019 -0500
  Last git commit subject: Merge pull request #1591 from jtkrogel/nexus_workshop2
=====================================================
  Global options 

  Total number of MPI ranks = 1
  Number of MPI groups      = 1
  MPI group ID              = 0
  Number of ranks in group  = 1
  MPI ranks per node        = 1
  OMP 1st level threads     = 8
  OMP nested threading disabled or only 1 thread on the 2nd level

  Precision used in this calculation, see definitions in the manual:
  Base precision      = double
  Full precision      = double

  Structure-of-arrays (SoA) optimization enabled

  Input XML = Opt.xml

  Project = H2O_AE_HF
  date    = 2019-05-11 23:23:09 CDT
  host    = abenali

 Random Number
 -------------
  Offset for the random number seeds based on time: 941

  Range of prime numbers to use as seeds over processors and threads = 7451-7507


 Particle Set 
 ------------
  Name: ion0
  All the species have the same mass 1
  Particle set size: 3

 Particle Set 
 ------------
  Name: e
  All the species have the same mass 1
  Particle set size: 10

 Wavefunction setup: 
 ------------------- 
  Name: psi0
  LCAO: SoaAtomicBasisSet<MultiQuintic,1>
Reading BasisSet from HDF5 file:../H2O_AE_HF.h5
<input node="atomicBasisSet" name="cc-pvtz" expandYlm="pyscf" angular="spherical" elementType="O" normalized="no" type="Numerical" expM="0" />
  AO BasisSet for O
   Spherical Harmonics contain (-1)^m factor
   Angular momentum m expanded as -l, ... ,l, with the exception of L=1 (1,-1,0)
   Grid is created by the input paremters in h5
    Using log grid ri = 1e-06 rf = 100 npts = 1001
   R(n,l,m,s) 0 0 0 0
   R(n,l,m,s) 1 0 0 0
   R(n,l,m,s) 2 0 0 0
   R(n,l,m,s) 3 0 0 0
   R(n,l,m,s) 4 1 0 0
   R(n,l,m,s) 5 1 0 0
   R(n,l,m,s) 6 1 0 0
   R(n,l,m,s) 7 2 0 0
   R(n,l,m,s) 8 2 0 0
   R(n,l,m,s) 9 3 0 0
Expanding Ylm as L=1 as (1,-1,0) and L>1 as -l,-l+1,...,l-1,l
   Adding 1 spherical orbitals
   Adding 1 spherical orbitals
   Adding 1 spherical orbitals
   Adding 1 spherical orbitals
   Adding 3 spherical orbitals
   Adding 3 spherical orbitals
   Adding 3 spherical orbitals
   Adding 5 spherical orbitals
   Adding 5 spherical orbitals
   Adding 7 spherical orbitals
  Setting cutoff radius 7.72681

   Maximum Angular Momentum  = 3
   Number of Radial functors = 10
   Basis size                = 30

<input node="atomicBasisSet" name="cc-pvtz" expandYlm="pyscf" angular="spherical" elementType="H" normalized="no" type="Numerical" expM="0" />
  AO BasisSet for H
   Spherical Harmonics contain (-1)^m factor
   Angular momentum m expanded as -l, ... ,l, with the exception of L=1 (1,-1,0)
   Grid is created by the input paremters in h5
    Using log grid ri = 1e-06 rf = 100 npts = 1001
   R(n,l,m,s) 0 0 0 0
   R(n,l,m,s) 1 0 0 0
   R(n,l,m,s) 2 0 0 0
   R(n,l,m,s) 3 1 0 0
   R(n,l,m,s) 4 1 0 0
   R(n,l,m,s) 5 2 0 0
Expanding Ylm as L=1 as (1,-1,0) and L>1 as -l,-l+1,...,l-1,l
   Adding 1 spherical orbitals
   Adding 1 spherical orbitals
   Adding 1 spherical orbitals
   Adding 3 spherical orbitals
   Adding 3 spherical orbitals
   Adding 5 spherical orbitals
  Setting cutoff radius 11.1686

   Maximum Angular Momentum  = 2
   Number of Radial functors = 6
   Basis size                = 14

  Created SPOSet builder named 'LCAOBSet' of type molecularorbital
Reuse SPOSetBuilder "LCAOBSet" type MolecularOrbital
  Building SPOSet '' with '' basis set.
Reading cusp info from : ../CuspCorrection/updet.cuspInfo.xml
Found precomputed cusp data for spo set: updet
Reuse SPOSetBuilder "LCAOBSet" type MolecularOrbital
  Building SPOSet '' with '' basis set.
Reading cusp info from : ../CuspCorrection/downdet.cuspInfo.xml
Found precomputed cusp data for spo set: downdet
  Creating a determinant updet group=0 sposet=updet
  Reusing a SPO set updet
Using DiracDeterminant with DelayedUpdate engine
Using rank-1 Sherman-Morrison Fahy update

  Creating a determinant downdet group=1 sposet=downdet
  Reusing a SPO set downdet
Using DiracDeterminant with DelayedUpdate engine
Using rank-1 Sherman-Morrison Fahy update

  FermionWF = SlaterDet

   Jastrow
   -------
    Name: J2   Type: Two-Body   Function: Bspline

    Radial function for species: u - u
     Number of parameters: 20
     Cusp: -0.25
     Cutoff radius: 10

      Name         Value Type Recompute Use Index
     ----- ------------- ---- --------- --- -----
      uu_0  1.941848e-01    1         1  ON     0
      uu_1  1.240759e-01    1         1  ON     1
      uu_2  6.903266e-02    1         1  ON     2
      uu_3  2.302677e-02    1         1  ON     3
      uu_4 -1.310460e-02    1         1  ON     4
      uu_5 -3.999085e-02    1         1  ON     5
      uu_6 -5.918666e-02    1         1  ON     6
      uu_7 -6.874570e-02    1         1  ON     7
      uu_8 -6.959136e-02    1         1  ON     8
      uu_9 -6.239755e-02    1         1  ON     9
     uu_10 -4.718105e-02    1         1  ON    10
     uu_11 -4.032675e-02    1         1  ON    11
     uu_12 -2.571397e-02    1         1  ON    12
     uu_13 -9.172035e-03    1         1  ON    13
     uu_14  1.705939e-03    1         1  ON    14
     uu_15  8.085120e-03    1         1  ON    15
     uu_16  4.079901e-03    1         1  ON    16
     uu_17  1.306935e-03    1         1  ON    17
     uu_18  1.675804e-03    1         1  ON    18
     uu_19  5.278477e-03    1         1  ON    19

    Radial function for species: u - d
     Number of parameters: 20
     Cusp: -0.5
     Cutoff radius: 10

      Name         Value Type Recompute Use Index
     ----- ------------- ---- --------- --- -----
      ud_0  3.275617e-01    1         1  ON     0
      ud_1  2.203209e-01    1         1  ON     1
      ud_2  1.278771e-01    1         1  ON     2
      ud_3  6.109167e-02    1         1  ON     3
      ud_4  1.118449e-02    1         1  ON     4
      ud_5 -2.415071e-02    1         1  ON     5
      ud_6 -4.944897e-02    1         1  ON     6
      ud_7 -6.487265e-02    1         1  ON     7
      ud_8 -7.301007e-02    1         1  ON     8
      ud_9 -7.190478e-02    1         1  ON     9
     ud_10 -6.230749e-02    1         1  ON    10
     ud_11 -4.975372e-02    1         1  ON    11
     ud_12 -4.881041e-02    1         1  ON    12
     ud_13 -5.033378e-02    1         1  ON    13
     ud_14 -4.300843e-02    1         1  ON    14
     ud_15 -2.831842e-02    1         1  ON    15
     ud_16 -2.491667e-02    1         1  ON    16
     ud_17 -1.956602e-02    1         1  ON    17
     ud_18 -1.062658e-02    1         1  ON    18
     ud_19 -6.725692e-03    1         1  ON    19


   Jastrow
   -------
    Name: J1   Type: One-Body   Function: Bspline

    Radial function for element: H
     Number of parameters: 10
     Cusp: 0
     Cutoff radius: 5

     Name         Value Type Recompute Use Index
     ---- ------------- ---- --------- --- -----
     eH_0 -1.281731e-01    1         1  ON     0
     eH_1 -1.148020e-01    1         1  ON     1
     eH_2 -1.011317e-01    1         1  ON     2
     eH_3 -8.900202e-02    1         1  ON     3
     eH_4 -6.824966e-02    1         1  ON     4
     eH_5 -4.999463e-02    1         1  ON     5
     eH_6 -3.378635e-02    1         1  ON     6
     eH_7 -2.107651e-02    1         1  ON     7
     eH_8 -1.744515e-02    1         1  ON     8
     eH_9 -9.603638e-03    1         1  ON     9

    Radial function for element: O
     Number of parameters: 10
     Cusp: 0
     Cutoff radius: 5

     Name         Value Type Recompute Use Index
     ---- ------------- ---- --------- --- -----
     eO_0 -1.085190e+00    1         1  ON     0
     eO_1 -8.964938e-01    1         1  ON     1
     eO_2 -6.013829e-01    1         1  ON     2
     eO_3 -3.284802e-01    1         1  ON     3
     eO_4 -6.053081e-02    1         1  ON     4
     eO_5  1.148558e-01    1         1  ON     5
     eO_6  2.534388e-01    1         1  ON     6
     eO_7  3.573500e-01    1         1  ON     7
     eO_8  3.579208e-01    1         1  ON     8
     eO_9  2.822741e-01    1         1  ON     9


   Jastrow
   -------
    Name: J3   Type: eeI   Function: polynomial

     Ion: H   electron-electron: u - u
      Number of parameters for e-e: 3, for e-I: 3
      Cutoff radius: 5

Expected 26 parameters, but found 0 in PolynomialFunctor3D.
        Name         Value Type Recompute Use Index
      ------ ------------- ---- --------- --- -----
       uuH_0  0.000000e+00    1         1  ON     0
       uuH_1  0.000000e+00    1         1  ON     1
       uuH_2  0.000000e+00    1         1  ON     2
       uuH_3  0.000000e+00    1         1  ON     3
       uuH_4  0.000000e+00    1         1  ON     4
       uuH_5  0.000000e+00    1         1  ON     5
       uuH_6  0.000000e+00    1         1  ON     6
       uuH_7  0.000000e+00    1         1  ON     7
       uuH_8  0.000000e+00    1         1  ON     8
       uuH_9  0.000000e+00    1         1  ON     9
      uuH_10  0.000000e+00    1         1  ON    10
      uuH_11  0.000000e+00    1         1  ON    11
      uuH_12  0.000000e+00    1         1  ON    12
      uuH_13  0.000000e+00    1         1  ON    13
      uuH_14  0.000000e+00    1         1  ON    14
      uuH_15  0.000000e+00    1         1  ON    15
      uuH_16  0.000000e+00    1         1  ON    16
      uuH_17  0.000000e+00    1         1  ON    17
      uuH_18  0.000000e+00    1         1  ON    18
      uuH_19  0.000000e+00    1         1  ON    19
      uuH_20  0.000000e+00    1         1  ON    20
      uuH_21  0.000000e+00    1         1  ON    21
      uuH_22  0.000000e+00    1         1  ON    22
      uuH_23  0.000000e+00    1         1  ON    23
      uuH_24  0.000000e+00    1         1  ON    24
      uuH_25  0.000000e+00    1         1  ON    25

     Ion: H   electron-electron: u - d
      Number of parameters for e-e: 3, for e-I: 3
      Cutoff radius: 5

Expected 26 parameters, but found 0 in PolynomialFunctor3D.
        Name         Value Type Recompute Use Index
      ------ ------------- ---- --------- --- -----
       udH_0  0.000000e+00    1         1  ON     0
       udH_1  0.000000e+00    1         1  ON     1
       udH_2  0.000000e+00    1         1  ON     2
       udH_3  0.000000e+00    1         1  ON     3
       udH_4  0.000000e+00    1         1  ON     4
       udH_5  0.000000e+00    1         1  ON     5
       udH_6  0.000000e+00    1         1  ON     6
       udH_7  0.000000e+00    1         1  ON     7
       udH_8  0.000000e+00    1         1  ON     8
       udH_9  0.000000e+00    1         1  ON     9
      udH_10  0.000000e+00    1         1  ON    10
      udH_11  0.000000e+00    1         1  ON    11
      udH_12  0.000000e+00    1         1  ON    12
      udH_13  0.000000e+00    1         1  ON    13
      udH_14  0.000000e+00    1         1  ON    14
      udH_15  0.000000e+00    1         1  ON    15
      udH_16  0.000000e+00    1         1  ON    16
      udH_17  0.000000e+00    1         1  ON    17
      udH_18  0.000000e+00    1         1  ON    18
      udH_19  0.000000e+00    1         1  ON    19
      udH_20  0.000000e+00    1         1  ON    20
      udH_21  0.000000e+00    1         1  ON    21
      udH_22  0.000000e+00    1         1  ON    22
      udH_23  0.000000e+00    1         1  ON    23
      udH_24  0.000000e+00    1         1  ON    24
      udH_25  0.000000e+00    1         1  ON    25

     Ion: O   electron-electron: u - u
      Number of parameters for e-e: 3, for e-I: 3
      Cutoff radius: 5

Expected 26 parameters, but found 0 in PolynomialFunctor3D.
        Name         Value Type Recompute Use Index
      ------ ------------- ---- --------- --- -----
       uuO_0  0.000000e+00    1         1  ON     0
       uuO_1  0.000000e+00    1         1  ON     1
       uuO_2  0.000000e+00    1         1  ON     2
       uuO_3  0.000000e+00    1         1  ON     3
       uuO_4  0.000000e+00    1         1  ON     4
       uuO_5  0.000000e+00    1         1  ON     5
       uuO_6  0.000000e+00    1         1  ON     6
       uuO_7  0.000000e+00    1         1  ON     7
       uuO_8  0.000000e+00    1         1  ON     8
       uuO_9  0.000000e+00    1         1  ON     9
      uuO_10  0.000000e+00    1         1  ON    10
      uuO_11  0.000000e+00    1         1  ON    11
      uuO_12  0.000000e+00    1         1  ON    12
      uuO_13  0.000000e+00    1         1  ON    13
      uuO_14  0.000000e+00    1         1  ON    14
      uuO_15  0.000000e+00    1         1  ON    15
      uuO_16  0.000000e+00    1         1  ON    16
      uuO_17  0.000000e+00    1         1  ON    17
      uuO_18  0.000000e+00    1         1  ON    18
      uuO_19  0.000000e+00    1         1  ON    19
      uuO_20  0.000000e+00    1         1  ON    20
      uuO_21  0.000000e+00    1         1  ON    21
      uuO_22  0.000000e+00    1         1  ON    22
      uuO_23  0.000000e+00    1         1  ON    23
      uuO_24  0.000000e+00    1         1  ON    24
      uuO_25  0.000000e+00    1         1  ON    25

     Ion: O   electron-electron: u - d
      Number of parameters for e-e: 3, for e-I: 3
      Cutoff radius: 5

Expected 26 parameters, but found 0 in PolynomialFunctor3D.
        Name         Value Type Recompute Use Index
      ------ ------------- ---- --------- --- -----
       udO_0  0.000000e+00    1         1  ON     0
       udO_1  0.000000e+00    1         1  ON     1
       udO_2  0.000000e+00    1         1  ON     2
       udO_3  0.000000e+00    1         1  ON     3
       udO_4  0.000000e+00    1         1  ON     4
       udO_5  0.000000e+00    1         1  ON     5
       udO_6  0.000000e+00    1         1  ON     6
       udO_7  0.000000e+00    1         1  ON     7
       udO_8  0.000000e+00    1         1  ON     8
       udO_9  0.000000e+00    1         1  ON     9
      udO_10  0.000000e+00    1         1  ON    10
      udO_11  0.000000e+00    1         1  ON    11
      udO_12  0.000000e+00    1         1  ON    12
      udO_13  0.000000e+00    1         1  ON    13
      udO_14  0.000000e+00    1         1  ON    14
      udO_15  0.000000e+00    1         1  ON    15
      udO_16  0.000000e+00    1         1  ON    16
      udO_17  0.000000e+00    1         1  ON    17
      udO_18  0.000000e+00    1         1  ON    18
      udO_19  0.000000e+00    1         1  ON    19
      udO_20  0.000000e+00    1         1  ON    20
      udO_21  0.000000e+00    1         1  ON    21
      udO_22  0.000000e+00    1         1  ON    22
      udO_23  0.000000e+00    1         1  ON    23
      udO_24  0.000000e+00    1         1  ON    24
      udO_25  0.000000e+00    1         1  ON    25

  QMCHamiltonian::addOperator Kinetic to H, physical Hamiltonian 
  QMCHamiltonian::addOperator ElecElec to H, physical Hamiltonian 
QMCHamiltonian::addOperatorType added type coulomb named ElecElec
  QMCHamiltonian::addOperator IonIon to H, physical Hamiltonian 
QMCHamiltonian::addOperatorType added type coulomb named IonIon
  QMCHamiltonian::addOperator IonElec to H, physical Hamiltonian 
QMCHamiltonian::addOperatorType added type coulomb named IonElec

  QMCHamiltonian::add2WalkerProperty added
    4 to P::PropertyList 
    0 to P::Collectables 
    starting Index of the observables in P::PropertyList = 9
ParticleSetPool::randomize 
<init source="ion0" target="e">
</init>
  Initialization Execution time = 0.05573 secs
=========================================================
 Summary of QMC systems 
=========================================================
ParticleSetPool has: 

  ParticleSet 'e' contains 10 particles :  u(5) d(5)

    u  3.1874519096e-01 -5.6699632125e-01 -9.6225350832e-02
    u -3.6810019932e-01 -4.2219662709e-01 -2.3701777373e-01
    u -5.1814584053e-01  5.0407088978e-01  2.6135046857e-01
    u  5.1178253460e-02 -5.0113989319e-01 -2.9831311955e-01
    u  2.4259730205e-01  8.0114071807e-01 -1.1487406558e+00
    d -6.3777742963e-01 -2.9788681955e-01  5.2428609517e-02
    d -3.3275971753e-01 -3.6369882908e-02  8.6360390763e-01
    d  1.5380321188e-01 -8.4421545327e-02  9.2405728259e-01
    d -4.1889359268e-01 -4.7186107150e-01 -1.3331795276e-01
    d  4.3414592478e-01 -9.2105731635e-01 -6.1149656308e-01

  Distance table for similar particles (A-A):
    source/target: e
    Using structure-of-arrays (SoA) data layout
    Distance computations use open boundary conditions in 3D.

  Distance table for dissimilar particles (A-B):
    source: ion0  target: e
    Using structure-of-arrays (SoA) data layout
    Distance computations use open boundary conditions in 3D.


  ParticleSet 'ion0' contains 3 particles :  H(2) O(1)

    H  0.0000000000e+00  1.4309006215e+00 -8.8665949765e-01
    H  0.0000000000e+00 -1.4309006215e+00 -8.8665949765e-01
    O  0.0000000000e+00  0.0000000000e+00  2.2166487441e-01

  Distance table for similar particles (A-A):
    source/target: ion0
    Using structure-of-arrays (SoA) data layout
    Distance computations use open boundary conditions in 3D.


  Hamiltonian h0
  Kinetic         Kinetic energy
  ElecElec        CoulombAA source/target e

  IonIon          CoulombAA source/target ion0

  IonElec         CoulombAB source=ion0



=========================================================
  Start VMC
  File Root H2O_AE_HF.s015 append = no 
=========================================================
  Adding 8 walkers to 0 existing sets
  Total number of walkers: 8.0000000000e+00
  Total weight: 8.0000000000e+00
  Resetting Properties of the walkers 1 x 13

<vmc function="put">
  qmc_counter=0  my_counter=0
  time step      = 5.0000000000e-01
  blocks         = 10
  steps          = 1
  substeps       = 5
  current        = 0
  target samples = 8.0000000000e+00
  walkers/mpi    = 8

  stepsbetweensamples = 10
<parameter name="blocks" condition="int">10</parameter>
<parameter name="blocks_between_recompute" condition="int">0</parameter>
<parameter name="check_properties" condition="int">100</parameter>
<parameter name="checkproperties" condition="int">100</parameter>
<parameter name="current" condition="int">0</parameter>
<parameter name="dmcwalkersperthread" condition="real">1.0000000000e+00</parameter>
<parameter name="maxcpusecs" condition="real">3.6000000000e+05</parameter>
<parameter name="record_configs" condition="int">0</parameter>
<parameter name="record_walkers" condition="int">10</parameter>
<parameter name="recordconfigs" condition="int">0</parameter>
<parameter name="recordwalkers" condition="int">10</parameter>
<parameter name="rewind" condition="int">0</parameter>
<parameter name="samples" condition="real">8.0000000000e+00</parameter>
<parameter name="samplesperthread" condition="real">1.0000000000e+00</parameter>
<parameter name="steps" condition="int">1</parameter>
<parameter name="stepsbetweensamples" condition="int">10</parameter>
<parameter name="store_configs" condition="int">0</parameter>
<parameter name="storeconfigs" condition="int">0</parameter>
<parameter name="sub_steps" condition="int">5</parameter>
<parameter name="substeps" condition="int">5</parameter>
<parameter name="tau" condition="au">5.0000000000e-01</parameter>
<parameter name="time_step" condition="au">5.0000000000e-01</parameter>
<parameter name="timestep" condition="au">5.0000000000e-01</parameter>
<parameter name="use_drift" condition="string">no</parameter>
<parameter name="usedrift" condition="string">no</parameter>
<parameter name="walkers" condition="int">8</parameter>
<parameter name="warmup_steps" condition="int">20</parameter>
<parameter name="warmupsteps" condition="int">20</parameter>
  DumpConfig==false Nothing (configurations, state) will be saved.
  Walker Samples are dumped every 10 steps.
</vmc>
  Set drift_modifier UNR parameter a = 1.0000000000e+00
  CloneManager::makeClones makes 8 clones for W/Psi/H.
  Cloning methods for both Psi and H are used
===== Memory Usage before cloning =====
Available memory on node 0, free + buffers : 17398 MB
Memory footprint by rank 0 on node 0       : 47 MB
==================================================
===== Memory Usage after cloning =====
Available memory on node 0, free + buffers : 17396 MB
Memory footprint by rank 0 on node 0       : 49 MB
==================================================
  Initial partition of walkers 0 1 2 3 4 5 6 7 8 

  Using Particle by Particle moves
  Walker moves without drift
  Total Sample Size   =8
  Walker distribution on root = 0 1 2 3 4 5 6 7 8 
===== Memory Usage after the buffer registration =====
Available memory on node 0, free + buffers : 17396 MB
Memory footprint by rank 0 on node 0       : 50 MB
==================================================
  Anonymous Buffer size per walker : 4352 Bytes.
MEMORY increase 0 MB VMC::resetRun
====================================================
  SimpleFixedNodeBranch::finalize after a VMC block
    QMC counter        = 0
    time step          = 0.5
    reference energy   = -76.5518
    reference variance = 4.80381
====================================================
  QMC Execution time = 3.8104e-02 secs
Loop execution max-interations = 4

=========================================================
  Start QMCFixedSampleLinearOptimize
  File Root H2O_AE_HF.s016 append = no 
=========================================================
  Skip QMCDriver::putQMCInfo 
  Resetting Properties of the walkers 1 x 13

=========================================================
  Start VMC
  File Root H2O_AE_HF.s016 append = no 
=========================================================
  Using the current 8 walkers.
  Total number of walkers: 8.0000e+00
  Total weight: 8.0000e+00
  Resetting Properties of the walkers 1 x 13

<vmc function="put">
  qmc_counter=0  my_counter=0
  time step      = 5.0000e-01
  blocks         = 40
  steps          = 250
  substeps       = 5
  current        = 0
  target samples = 8.0000e+04
  walkers/mpi    = 8

  stepsbetweensamples = 1
<parameter name="blocks" condition="int">40</parameter>
<parameter name="blocks_between_recompute" condition="int">0</parameter>
<parameter name="check_properties" condition="int">100</parameter>
<parameter name="checkproperties" condition="int">100</parameter>
<parameter name="current" condition="int">0</parameter>
<parameter name="dmcwalkersperthread" condition="real">1.0000e+04</parameter>
<parameter name="maxcpusecs" condition="real">3.6000e+05</parameter>
<parameter name="record_configs" condition="int">0</parameter>
<parameter name="record_walkers" condition="int">1</parameter>
<parameter name="recordconfigs" condition="int">0</parameter>
<parameter name="recordwalkers" condition="int">1</parameter>
<parameter name="rewind" condition="int">0</parameter>
<parameter name="samples" condition="real">8.0000e+04</parameter>
<parameter name="samplesperthread" condition="real">1.0000e+04</parameter>
<parameter name="steps" condition="int">250</parameter>
<parameter name="stepsbetweensamples" condition="int">1</parameter>
<parameter name="store_configs" condition="int">0</parameter>
<parameter name="storeconfigs" condition="int">0</parameter>
<parameter name="sub_steps" condition="int">5</parameter>
<parameter name="substeps" condition="int">5</parameter>
<parameter name="tau" condition="au">5.0000e-01</parameter>
<parameter name="time_step" condition="au">5.0000e-01</parameter>
<parameter name="timestep" condition="au">5.0000e-01</parameter>
<parameter name="use_drift" condition="string">no</parameter>
<parameter name="usedrift" condition="string">no</parameter>
<parameter name="walkers" condition="int">8</parameter>
<parameter name="warmup_steps" condition="int">2</parameter>
<parameter name="warmupsteps" condition="int">2</parameter>
  DumpConfig==false Nothing (configurations, state) will be saved.
  Walker Samples are dumped every 1 steps.
</vmc>
    Restarting, cummulative properties:
      energy     = -7.6552e+01
      variance   = 0.0000e+00
      r2accepted = 1.0000e-10
      r2proposed = 1.0000e-10
  Set drift_modifier UNR parameter a = 1.0000e+00
 Using QMCCostFunction::QMCCostFunction
 Using Default Cost Function: Cost = <|E-E_ff|^2>
  Set drift_modifier UNR parameter a = 1.0000e+00
  EstimatorManagerBase::add replace LocalEnergy estimator.
<optimization-report>
<vmc stage="main" blocks="40">
  Cannot make clones again. Use existing 8 clones
  Initial partition of walkers 0 1 2 3 4 5 6 7 8 

  Using Particle by Particle moves
  Walker moves without drift
  Total Sample Size   =80000
  Walker distribution on root = 0 1 2 3 4 5 6 7 8 
===== Memory Usage after the buffer registration =====
Available memory on node 0, free + buffers : 17396 MB
Memory footprint by rank 0 on node 0       : 52 MB
==================================================
  Anonymous Buffer size per walker : 4352 Bytes.
MEMORY increase 0 MB VMC::resetRun
====================================================
  SimpleFixedNodeBranch::finalize after a VMC block
    QMC counter        = 1
    time step          = 0.5
    reference energy   = -77.094
    reference variance = 3.47968
====================================================
  Execution time = 3.8473e+00
</vmc>
<opt stage="setup">
  <log>
   Reading configurations from h5FileRoot H2O_AE_HF.s016
  QMCCostFunction is created with 8 threads.
  Using Nonlocal PP in Opt: no
   Number of samples loaded to each thread : 10000 10000 10000 10000 10000 10000 10000 10000 
  VMC Eavg = -7.6373e+01
  VMC Evar = 4.4101e+00
  Total weights = 8.0000e+04
  Execution time = 8.7660e+00
  </log>
</opt>
<opt stage="main" walkers="80000">
  <log>

*****************************************
Building overlap and Hamiltonian matrices
*****************************************

Among totally 164 optimized parameters, largest LM parameter change : 2.8003e-01 at parameter 51

******************************************************************************
Init Cost =  -6.8295e+01    New Cost =  -6.8518e+01  Delta Cost =  -2.2288e-01
******************************************************************************

The new set of parameters is valid. Updating the trial wave function!

*****************************************************************************
Applying the update for shift_i =   1.0000e-02     and shift_s =   2.5000e-01
*****************************************************************************
  Execution time = 1.6845e+01
  </log>
  <optVariables href="H2O_AE_HF.s016.opt.xml">
  uu_0  2.129723e-01 1 1  ON 0
  uu_1  1.300562e-01 1 1  ON 1
  uu_2  5.983175e-02 1 1  ON 2
  uu_3  9.590409e-03 1 1  ON 3
  uu_4 -2.806186e-02 1 1  ON 4
  uu_5 -5.310508e-02 1 1  ON 5
  uu_6 -6.691302e-02 1 1  ON 6
  uu_7 -7.428320e-02 1 1  ON 7
  uu_8 -7.533982e-02 1 1  ON 8
  uu_9 -6.462835e-02 1 1  ON 9
 uu_10 -4.292598e-02 1 1  ON 10
 uu_11 -3.040708e-02 1 1  ON 11
 uu_12 -1.750501e-02 1 1  ON 12
 uu_13 -1.977940e-03 1 1  ON 13
 uu_14  9.457488e-03 1 1  ON 14
 uu_15  1.435075e-02 1 1  ON 15
 uu_16  7.195644e-03 1 1  ON 16
 uu_17  1.079648e-03 1 1  ON 17
 uu_18  2.675290e-03 1 1  ON 18
 uu_19  5.471271e-03 1 1  ON 19
  ud_0  4.426241e-01 1 1  ON 20
  ud_1  2.555409e-01 1 1  ON 21
  ud_2  1.217567e-01 1 1  ON 22
  ud_3  3.663957e-02 1 1  ON 23
  ud_4 -1.576795e-02 1 1  ON 24
  ud_5 -4.280126e-02 1 1  ON 25
  ud_6 -6.126572e-02 1 1  ON 26
  ud_7 -7.544955e-02 1 1  ON 27
  ud_8 -8.498593e-02 1 1  ON 28
  ud_9 -8.283595e-02 1 1  ON 29
 ud_10 -7.156285e-02 1 1  ON 30
 ud_11 -6.445803e-02 1 1  ON 31
 ud_12 -6.152155e-02 1 1  ON 32
 ud_13 -5.274799e-02 1 1  ON 33
 ud_14 -3.823631e-02 1 1  ON 34
 ud_15 -2.340830e-02 1 1  ON 35
 ud_16 -2.733747e-02 1 1  ON 36
 ud_17 -1.927092e-02 1 1  ON 37
 ud_18 -8.807873e-03 1 1  ON 38
 ud_19 -6.080498e-03 1 1  ON 39
  eH_0 -1.417356e-01 1 1  ON 40
  eH_1 -1.263352e-01 1 1  ON 41
  eH_2 -9.728823e-02 1 1  ON 42
  eH_3 -7.647374e-02 1 1  ON 43
  eH_4 -7.103788e-02 1 1  ON 44
  eH_5 -5.758432e-02 1 1  ON 45
  eH_6 -4.043657e-02 1 1  ON 46
  eH_7 -2.593457e-02 1 1  ON 47
  eH_8 -1.832352e-02 1 1  ON 48
  eH_9 -1.138702e-02 1 1  ON 49
  eO_0 -1.264738e+00 1 1  ON 50
  eO_1 -1.176526e+00 1 1  ON 51
  eO_2 -7.805833e-01 1 1  ON 52
  eO_3 -3.490555e-01 1 1  ON 53
  eO_4  2.217966e-02 1 1  ON 54
  eO_5  2.166172e-01 1 1  ON 55
  eO_6  3.173011e-01 1 1  ON 56
  eO_7  4.026427e-01 1 1  ON 57
  eO_8  3.919048e-01 1 1  ON 58
  eO_9  3.100569e-01 1 1  ON 59
 uuH_0 -1.973424e-03 1 1  ON 60
 uuH_1  9.020462e-04 1 1  ON 61
 uuH_2  3.310669e-03 1 1  ON 62
 uuH_3 -1.200888e-03 1 1  ON 63
 uuH_4 -3.190908e-03 1 1  ON 64
 uuH_5 -1.039842e-04 1 1  ON 65
 uuH_6  6.203160e-03 1 1  ON 66
 uuH_7 -5.001270e-03 1 1  ON 67
 uuH_8  1.092580e-02 1 1  ON 68
 uuH_9 -9.401170e-04 1 1  ON 69
uuH_10 -3.694707e-03 1 1  ON 70
uuH_11 -1.260357e-03 1 1  ON 71
uuH_12 -8.730031e-03 1 1  ON 72
uuH_13 -4.253723e-05 1 1  ON 73
uuH_14  5.617855e-03 1 1  ON 74
uuH_15  4.311069e-04 1 1  ON 75
uuH_16  1.385731e-03 1 1  ON 76
uuH_17  3.017906e-03 1 1  ON 77
uuH_18  9.914821e-03 1 1  ON 78
uuH_19  3.924844e-03 1 1  ON 79
uuH_20  1.591778e-03 1 1  ON 80
uuH_21 -8.523114e-03 1 1  ON 81
uuH_22  1.643002e-03 1 1  ON 82
uuH_23 -1.648161e-03 1 1  ON 83
uuH_24  4.530844e-03 1 1  ON 84
uuH_25 -1.567868e-03 1 1  ON 85
 udH_0  1.701864e-03 1 1  ON 86
 udH_1 -8.557249e-04 1 1  ON 87
 udH_2 -1.435455e-03 1 1  ON 88
 udH_3 -1.618976e-03 1 1  ON 89
 udH_4 -2.182160e-03 1 1  ON 90
 udH_5  4.184354e-04 1 1  ON 91
 udH_6 -1.300147e-04 1 1  ON 92
 udH_7 -5.815024e-03 1 1  ON 93
 udH_8  6.681106e-03 1 1  ON 94
 udH_9 -1.179823e-03 1 1  ON 95
udH_10 -2.951949e-03 1 1  ON 96
udH_11  1.287660e-04 1 1  ON 97
udH_12 -8.158254e-03 1 1  ON 98
udH_13  2.886598e-03 1 1  ON 99
udH_14  5.064996e-03 1 1  ON 100
udH_15  7.446636e-04 1 1  ON 101
udH_16  1.201709e-02 1 1  ON 102
udH_17  4.059749e-03 1 1  ON 103
udH_18  3.724376e-03 1 1  ON 104
udH_19  7.300495e-03 1 1  ON 105
udH_20 -8.845514e-03 1 1  ON 106
udH_21 -2.393207e-03 1 1  ON 107
udH_22 -1.019632e-03 1 1  ON 108
udH_23  5.728785e-03 1 1  ON 109
udH_24 -7.717689e-04 1 1  ON 110
udH_25  4.095083e-04 1 1  ON 111
 uuO_0 -1.910527e-04 1 1  ON 112
 uuO_1  4.101468e-03 1 1  ON 113
 uuO_2  5.632015e-03 1 1  ON 114
 uuO_3 -7.899905e-03 1 1  ON 115
 uuO_4 -7.759629e-03 1 1  ON 116
 uuO_5 -1.494546e-04 1 1  ON 117
 uuO_6  4.880146e-03 1 1  ON 118
 uuO_7 -9.604443e-04 1 1  ON 119
 uuO_8  1.924813e-02 1 1  ON 120
 uuO_9 -1.019041e-04 1 1  ON 121
uuO_10 -9.113290e-03 1 1  ON 122
uuO_11  4.555888e-03 1 1  ON 123
uuO_12 -1.531599e-02 1 1  ON 124
uuO_13  9.459528e-03 1 1  ON 125
uuO_14  1.204808e-02 1 1  ON 126
uuO_15  4.952048e-04 1 1  ON 127
uuO_16 -1.456511e-02 1 1  ON 128
uuO_17  3.216390e-02 1 1  ON 129
uuO_18 -3.034179e-02 1 1  ON 130
uuO_19  1.923788e-02 1 1  ON 131
uuO_20  4.559652e-03 1 1  ON 132
uuO_21  8.074404e-04 1 1  ON 133
uuO_22 -3.183913e-03 1 1  ON 134
uuO_23 -4.174345e-03 1 1  ON 135
uuO_24  1.458662e-03 1 1  ON 136
uuO_25  2.120194e-04 1 1  ON 137
 udO_0  4.766776e-04 1 1  ON 138
 udO_1 -3.455216e-03 1 1  ON 139
 udO_2 -4.691363e-04 1 1  ON 140
 udO_3 -5.964702e-04 1 1  ON 141
 udO_4  2.651198e-04 1 1  ON 142
 udO_5 -4.555145e-05 1 1  ON 143
 udO_6 -1.287201e-02 1 1  ON 144
 udO_7  4.695300e-03 1 1  ON 145
 udO_8  5.035465e-03 1 1  ON 146
 udO_9  1.258233e-02 1 1  ON 147
udO_10  2.907621e-03 1 1  ON 148
udO_11 -1.161926e-02 1 1  ON 149
udO_12 -3.966645e-03 1 1  ON 150
udO_13 -7.564735e-03 1 1  ON 151
udO_14  3.702904e-03 1 1  ON 152
udO_15  3.104767e-04 1 1  ON 153
udO_16 -1.662273e-02 1 1  ON 154
udO_17 -1.037820e-02 1 1  ON 155
udO_18  2.326006e-02 1 1  ON 156
udO_19  3.689131e-04 1 1  ON 157
udO_20  9.907722e-03 1 1  ON 158
udO_21 -7.543256e-03 1 1  ON 159
udO_22  7.639995e-04 1 1  ON 160
udO_23 -5.339985e-03 1 1  ON 161
udO_24  3.530412e-03 1 1  ON 162
udO_25 -7.359973e-04 1 1  ON 163
  </optVariables>
   Restore the number of walkers to 8, removing 0 walkers.
</opt>
</optimization-report>
  QMC Execution time = 16.86 secs
  Reusing QMCFixedSampleLinearOptimize
 Using QMCCostFunction::QMCCostFunction
 Using Default Cost Function: Cost = <|E-E_ff|^2>

=========================================================
  Start QMCFixedSampleLinearOptimize
  File Root H2O_AE_HF.s017 append = no 
=========================================================
  Skip QMCDriver::putQMCInfo 
  Resetting Properties of the walkers 1 x 13

=========================================================
  Start VMC
  File Root H2O_AE_HF.s017 append = no 
=========================================================
Using existing walkers 
  Resetting Properties of the walkers 1 x 13

<vmc function="put">
  qmc_counter=1  my_counter=1
  time step      = 5.0000e-01
  blocks         = 40
  steps          = 250
  substeps       = 5
  current        = 0
  target samples = 8.0000e+04
  walkers/mpi    = 8

  stepsbetweensamples = 1
<parameter name="blocks" condition="int">40</parameter>
<parameter name="blocks_between_recompute" condition="int">0</parameter>
<parameter name="check_properties" condition="int">100</parameter>
<parameter name="checkproperties" condition="int">100</parameter>
<parameter name="current" condition="int">0</parameter>
<parameter name="dmcwalkersperthread" condition="real">1.0000e+04</parameter>
<parameter name="maxcpusecs" condition="real">3.6000e+05</parameter>
<parameter name="record_configs" condition="int">0</parameter>
<parameter name="record_walkers" condition="int">1</parameter>
<parameter name="recordconfigs" condition="int">0</parameter>
<parameter name="recordwalkers" condition="int">1</parameter>
<parameter name="rewind" condition="int">0</parameter>
<parameter name="samples" condition="real">8.0000e+04</parameter>
<parameter name="samplesperthread" condition="real">1.0000e+04</parameter>
<parameter name="steps" condition="int">250</parameter>
<parameter name="stepsbetweensamples" condition="int">1</parameter>
<parameter name="store_configs" condition="int">0</parameter>
<parameter name="storeconfigs" condition="int">0</parameter>
<parameter name="sub_steps" condition="int">5</parameter>
<parameter name="substeps" condition="int">5</parameter>
<parameter name="tau" condition="au">5.0000e-01</parameter>
<parameter name="time_step" condition="au">5.0000e-01</parameter>
<parameter name="timestep" condition="au">5.0000e-01</parameter>
<parameter name="use_drift" condition="string">no</parameter>
<parameter name="usedrift" condition="string">no</parameter>
<parameter name="walkers" condition="int">1</parameter>
<parameter name="warmup_steps" condition="int">2</parameter>
<parameter name="warmupsteps" condition="int">2</parameter>
  DumpConfig==false Nothing (configurations, state) will be saved.
  Walker Samples are dumped every 1 steps.
</vmc>
  Set drift_modifier UNR parameter a = 1.0000e+00
  EstimatorManagerBase::add replace LocalEnergy estimator.
  Set drift_modifier UNR parameter a = 1.0000e+00
  EstimatorManagerBase::add replace LocalEnergy estimator.
<optimization-report>
<vmc stage="main" blocks="40">
  Cannot make clones again. Use existing 8 clones
  Initial partition of walkers 0 1 2 3 4 5 6 7 8 
  Using Particle by Particle moves
  Walker moves without drift
  Total Sample Size   =80000
  Walker distribution on root = 0 1 2 3 4 5 6 7 8 
===== Memory Usage after the buffer registration =====
Available memory on node 0, free + buffers : 17262 MB
Memory footprint by rank 0 on node 0       : 393 MB
==================================================
====================================================
  SimpleFixedNodeBranch::finalize after a VMC block
    QMC counter        = 2
    time step          = 0.5
    reference energy   = -76.196
    reference variance = 0.807689
====================================================
  Execution time = 3.8174e+00
</vmc>
<opt stage="setup">
  <log>
   Reading configurations from h5FileRoot H2O_AE_HF.s017
  QMCCostFunction is created with 8 threads.
  Using Nonlocal PP in Opt: no
   Number of samples loaded to each thread : 10000 10000 10000 10000 10000 10000 10000 10000 
  VMC Eavg = -7.6361e+01
  VMC Evar = 3.1750e+00
  Total weights = 8.0000e+04
  Execution time = 8.7062e+00
  </log>
</opt>
<opt stage="main" walkers="80000">
  <log>

*****************************************
Building overlap and Hamiltonian matrices
*****************************************

Among totally 164 optimized parameters, largest LM parameter change : 1.6369e-01 at parameter 51

******************************************************************************
Init Cost =  -6.8407e+01    New Cost =  -6.8411e+01  Delta Cost =  -4.0481e-03
******************************************************************************

The new set of parameters is valid. Updating the trial wave function!

*****************************************************************************
Applying the update for shift_i =   1.0000e-02     and shift_s =   6.2500e-02
*****************************************************************************
  Execution time = 1.6710e+01
  </log>
  <optVariables href="H2O_AE_HF.s017.opt.xml">
  uu_0  2.285966e-01 1 1  ON 0
  uu_1  1.341408e-01 1 1  ON 1
  uu_2  5.723476e-02 1 1  ON 2
  uu_3  8.602319e-03 1 1  ON 3
  uu_4 -2.896820e-02 1 1  ON 4
  uu_5 -5.520599e-02 1 1  ON 5
  uu_6 -6.849924e-02 1 1  ON 6
  uu_7 -7.618120e-02 1 1  ON 7
  uu_8 -7.661048e-02 1 1  ON 8
  uu_9 -6.718113e-02 1 1  ON 9
 uu_10 -4.432628e-02 1 1  ON 10
 uu_11 -2.855000e-02 1 1  ON 11
 uu_12 -7.273400e-03 1 1  ON 12
 uu_13  7.284089e-03 1 1  ON 13
 uu_14 -1.020496e-02 1 1  ON 14
 uu_15  7.248292e-03 1 1  ON 15
 uu_16  6.432388e-03 1 1  ON 16
 uu_17  8.956749e-04 1 1  ON 17
 uu_18  4.050807e-03 1 1  ON 18
 uu_19  5.984288e-03 1 1  ON 19
  ud_0  4.575989e-01 1 1  ON 20
  ud_1  2.611882e-01 1 1  ON 21
  ud_2  1.219742e-01 1 1  ON 22
  ud_3  3.474090e-02 1 1  ON 23
  ud_4 -1.722168e-02 1 1  ON 24
  ud_5 -4.570646e-02 1 1  ON 25
  ud_6 -6.322398e-02 1 1  ON 26
  ud_7 -7.803836e-02 1 1  ON 27
  ud_8 -8.692161e-02 1 1  ON 28
  ud_9 -8.037735e-02 1 1  ON 29
 ud_10 -6.712634e-02 1 1  ON 30
 ud_11 -5.913679e-02 1 1  ON 31
 ud_12 -4.876970e-02 1 1  ON 32
 ud_13 -4.138070e-02 1 1  ON 33
 ud_14 -4.522961e-02 1 1  ON 34
 ud_15 -3.285458e-02 1 1  ON 35
 ud_16 -3.836817e-02 1 1  ON 36
 ud_17 -2.658626e-02 1 1  ON 37
 ud_18 -1.484206e-02 1 1  ON 38
 ud_19 -9.285928e-03 1 1  ON 39
  eH_0 -1.582796e-01 1 1  ON 40
  eH_1 -1.290971e-01 1 1  ON 41
  eH_2 -9.198646e-02 1 1  ON 42
  eH_3 -7.014073e-02 1 1  ON 43
  eH_4 -6.280046e-02 1 1  ON 44
  eH_5 -5.150824e-02 1 1  ON 45
  eH_6 -3.791724e-02 1 1  ON 46
  eH_7 -2.733545e-02 1 1  ON 47
  eH_8 -1.934345e-02 1 1  ON 48
  eH_9 -1.778679e-02 1 1  ON 49
  eO_0 -1.415966e+00 1 1  ON 50
  eO_1 -1.340219e+00 1 1  ON 51
  eO_2 -9.112015e-01 1 1  ON 52
  eO_3 -4.123297e-01 1 1  ON 53
  eO_4  1.800185e-02 1 1  ON 54
  eO_5  2.539478e-01 1 1  ON 55
  eO_6  3.470188e-01 1 1  ON 56
  eO_7  4.396036e-01 1 1  ON 57
  eO_8  4.174351e-01 1 1  ON 58
  eO_9  3.324043e-01 1 1  ON 59
 uuH_0 -1.845530e-03 1 1  ON 60
 uuH_1  2.389495e-03 1 1  ON 61
 uuH_2  3.882525e-03 1 1  ON 62
 uuH_3 -2.884767e-03 1 1  ON 63
 uuH_4 -5.416946e-03 1 1  ON 64
 uuH_5 -3.301286e-04 1 1  ON 65
 uuH_6  8.827110e-03 1 1  ON 66
 uuH_7 -7.306584e-04 1 1  ON 67
 uuH_8  1.393725e-02 1 1  ON 68
 uuH_9 -2.812468e-03 1 1  ON 69
uuH_10 -7.103095e-03 1 1  ON 70
uuH_11 -2.682132e-03 1 1  ON 71
uuH_12 -9.696581e-03 1 1  ON 72
uuH_13  3.134773e-03 1 1  ON 73
uuH_14  6.509761e-03 1 1  ON 74
uuH_15  4.968893e-04 1 1  ON 75
uuH_16  3.813583e-03 1 1  ON 76
uuH_17  6.515055e-03 1 1  ON 77
uuH_18  1.345172e-02 1 1  ON 78
uuH_19  2.832904e-03 1 1  ON 79
uuH_20 -1.632586e-03 1 1  ON 80
uuH_21 -1.006362e-02 1 1  ON 81
uuH_22  2.120683e-03 1 1  ON 82
uuH_23  6.420713e-04 1 1  ON 83
uuH_24  5.062794e-03 1 1  ON 84
uuH_25 -1.739375e-03 1 1  ON 85
 udH_0 -1.290721e-03 1 1  ON 86
 udH_1  3.616047e-03 1 1  ON 87
 udH_2  6.218899e-03 1 1  ON 88
 udH_3 -4.605611e-03 1 1  ON 89
 udH_4 -7.233470e-03 1 1  ON 90
 udH_5 -1.794762e-05 1 1  ON 91
 udH_6  1.215574e-02 1 1  ON 92
 udH_7 -6.515765e-03 1 1  ON 93
 udH_8  1.850705e-02 1 1  ON 94
 udH_9 -4.597205e-03 1 1  ON 95
udH_10 -8.221427e-03 1 1  ON 96
udH_11 -1.452435e-03 1 1  ON 97
udH_12 -1.465979e-02 1 1  ON 98
udH_13  4.602762e-03 1 1  ON 99
udH_14  9.138956e-03 1 1  ON 100
udH_15  9.431480e-04 1 1  ON 101
udH_16  1.443123e-02 1 1  ON 102
udH_17  8.738270e-03 1 1  ON 103
udH_18  3.388386e-03 1 1  ON 104
udH_19  1.072317e-02 1 1  ON 105
udH_20 -8.689712e-03 1 1  ON 106
udH_21 -4.932174e-03 1 1  ON 107
udH_22 -6.419250e-04 1 1  ON 108
udH_23  4.941436e-03 1 1  ON 109
udH_24  1.078275e-03 1 1  ON 110
udH_25 -2.481343e-04 1 1  ON 111
 uuO_0  3.563312e-04 1 1  ON 112
 uuO_1  4.696410e-03 1 1  ON 113
 uuO_2  5.052814e-03 1 1  ON 114
 uuO_3 -9.083365e-03 1 1  ON 115
 uuO_4 -9.283040e-03 1 1  ON 116
 uuO_5 -1.016825e-04 1 1  ON 117
 uuO_6  6.038074e-03 1 1  ON 118
 uuO_7 -1.239612e-03 1 1  ON 119
 uuO_8  1.824660e-02 1 1  ON 120
 uuO_9 -1.242649e-03 1 1  ON 121
uuO_10 -1.171464e-02 1 1  ON 122
uuO_11  1.142484e-02 1 1  ON 123
uuO_12 -1.637134e-02 1 1  ON 124
uuO_13  1.282256e-02 1 1  ON 125
uuO_14  1.250097e-02 1 1  ON 126
uuO_15  6.427304e-04 1 1  ON 127
uuO_16 -1.400636e-02 1 1  ON 128
uuO_17  4.199406e-02 1 1  ON 129
uuO_18 -4.882927e-02 1 1  ON 130
uuO_19  2.459646e-02 1 1  ON 131
uuO_20  2.352209e-03 1 1  ON 132
uuO_21  5.909692e-03 1 1  ON 133
uuO_22 -5.353878e-03 1 1  ON 134
uuO_23 -2.983547e-03 1 1  ON 135
uuO_24 -7.587205e-04 1 1  ON 136
uuO_25  1.298816e-03 1 1  ON 137
 udO_0  2.090092e-04 1 1  ON 138
 udO_1 -3.684429e-03 1 1  ON 139
 udO_2  5.402766e-04 1 1  ON 140
 udO_3  2.296077e-04 1 1  ON 141
 udO_4  8.789162e-04 1 1  ON 142
 udO_5  1.132693e-04 1 1  ON 143
 udO_6 -1.325259e-02 1 1  ON 144
 udO_7  5.144705e-03 1 1  ON 145
 udO_8  3.210052e-03 1 1  ON 146
 udO_9  1.332398e-02 1 1  ON 147
udO_10  4.562858e-03 1 1  ON 148
udO_11 -1.309824e-02 1 1  ON 149
udO_12 -2.364077e-03 1 1  ON 150
udO_13 -1.029690e-02 1 1  ON 151
udO_14  1.388758e-03 1 1  ON 152
udO_15  5.837422e-04 1 1  ON 153
udO_16 -1.640086e-02 1 1  ON 154
udO_17 -1.762590e-02 1 1  ON 155
udO_18  2.686497e-02 1 1  ON 156
udO_19 -2.837381e-04 1 1  ON 157
udO_20  1.272073e-02 1 1  ON 158
udO_21 -7.020855e-03 1 1  ON 159
udO_22  2.220501e-04 1 1  ON 160
udO_23 -7.699977e-03 1 1  ON 161
udO_24  3.594313e-03 1 1  ON 162
udO_25 -4.567812e-04 1 1  ON 163
  </optVariables>
   Restore the number of walkers to 8, removing 0 walkers.
</opt>
</optimization-report>
  QMC Execution time = 16.72 secs
  Reusing QMCFixedSampleLinearOptimize
 Using QMCCostFunction::QMCCostFunction
 Using Default Cost Function: Cost = <|E-E_ff|^2>

=========================================================
  Start QMCFixedSampleLinearOptimize
  File Root H2O_AE_HF.s018 append = no 
=========================================================
  Skip QMCDriver::putQMCInfo 
  Resetting Properties of the walkers 1 x 13

=========================================================
  Start VMC
  File Root H2O_AE_HF.s018 append = no 
=========================================================
Using existing walkers 
  Resetting Properties of the walkers 1 x 13

<vmc function="put">
  qmc_counter=2  my_counter=2
  time step      = 5.0000e-01
  blocks         = 40
  steps          = 250
  substeps       = 5
  current        = 0
  target samples = 8.0000e+04
  walkers/mpi    = 8

  stepsbetweensamples = 1
<parameter name="blocks" condition="int">40</parameter>
<parameter name="blocks_between_recompute" condition="int">0</parameter>
<parameter name="check_properties" condition="int">100</parameter>
<parameter name="checkproperties" condition="int">100</parameter>
<parameter name="current" condition="int">0</parameter>
<parameter name="dmcwalkersperthread" condition="real">1.0000e+04</parameter>
<parameter name="maxcpusecs" condition="real">3.6000e+05</parameter>
<parameter name="record_configs" condition="int">0</parameter>
<parameter name="record_walkers" condition="int">1</parameter>
<parameter name="recordconfigs" condition="int">0</parameter>
<parameter name="recordwalkers" condition="int">1</parameter>
<parameter name="rewind" condition="int">0</parameter>
<parameter name="samples" condition="real">8.0000e+04</parameter>
<parameter name="samplesperthread" condition="real">1.0000e+04</parameter>
<parameter name="steps" condition="int">250</parameter>
<parameter name="stepsbetweensamples" condition="int">1</parameter>
<parameter name="store_configs" condition="int">0</parameter>
<parameter name="storeconfigs" condition="int">0</parameter>
<parameter name="sub_steps" condition="int">5</parameter>
<parameter name="substeps" condition="int">5</parameter>
<parameter name="tau" condition="au">5.0000e-01</parameter>
<parameter name="time_step" condition="au">5.0000e-01</parameter>
<parameter name="timestep" condition="au">5.0000e-01</parameter>
<parameter name="use_drift" condition="string">no</parameter>
<parameter name="usedrift" condition="string">no</parameter>
<parameter name="walkers" condition="int">1</parameter>
<parameter name="warmup_steps" condition="int">2</parameter>
<parameter name="warmupsteps" condition="int">2</parameter>
  DumpConfig==false Nothing (configurations, state) will be saved.
  Walker Samples are dumped every 1 steps.
</vmc>
  Set drift_modifier UNR parameter a = 1.0000e+00
  EstimatorManagerBase::add replace LocalEnergy estimator.
  Set drift_modifier UNR parameter a = 1.0000e+00
  EstimatorManagerBase::add replace LocalEnergy estimator.
<optimization-report>
<vmc stage="main" blocks="40">
  Cannot make clones again. Use existing 8 clones
  Initial partition of walkers 0 1 2 3 4 5 6 7 8 
  Using Particle by Particle moves
  Walker moves without drift
  Total Sample Size   =80000
  Walker distribution on root = 0 1 2 3 4 5 6 7 8 
===== Memory Usage after the buffer registration =====
Available memory on node 0, free + buffers : 17131 MB
Memory footprint by rank 0 on node 0       : 394 MB
==================================================
====================================================
  SimpleFixedNodeBranch::finalize after a VMC block
    QMC counter        = 3
    time step          = 0.5
    reference energy   = -76.2799
    reference variance = 2.56897
====================================================
  Execution time = 3.7941e+00
</vmc>
<opt stage="setup">
  <log>
   Reading configurations from h5FileRoot H2O_AE_HF.s018
  QMCCostFunction is created with 8 threads.
  Using Nonlocal PP in Opt: no
   Number of samples loaded to each thread : 10000 10000 10000 10000 10000 10000 10000 10000 
  VMC Eavg = -7.6398e+01
  VMC Evar = 2.2447e+00
  Total weights = 8.0000e+04
  Execution time = 8.7215e+00
  </log>
</opt>
<opt stage="main" walkers="80000">
  <log>

*****************************************
Building overlap and Hamiltonian matrices
*****************************************

Among totally 164 optimized parameters, largest LM parameter change : 1.0464e-01 at parameter 51

******************************************************************************
Init Cost =  -6.8534e+01    New Cost =  -6.8532e+01  Delta Cost =   1.6520e-03
******************************************************************************

The new set of parameters is valid. Updating the trial wave function!

*****************************************************************************
Applying the update for shift_i =   1.0000e-02     and shift_s =   1.5625e-02
*****************************************************************************
  Execution time = 1.6695e+01
  </log>
  <optVariables href="H2O_AE_HF.s018.opt.xml">
  uu_0  2.227903e-01 1 1  ON 0
  uu_1  1.419961e-01 1 1  ON 1
  uu_2  6.666378e-02 1 1  ON 2
  uu_3  1.354060e-02 1 1  ON 3
  uu_4 -2.719339e-02 1 1  ON 4
  uu_5 -5.390126e-02 1 1  ON 5
  uu_6 -6.784853e-02 1 1  ON 6
  uu_7 -7.738520e-02 1 1  ON 7
  uu_8 -7.902317e-02 1 1  ON 8
  uu_9 -6.515664e-02 1 1  ON 9
 uu_10 -4.561200e-02 1 1  ON 10
 uu_11 -3.662742e-02 1 1  ON 11
 uu_12 -2.096881e-02 1 1  ON 12
 uu_13 -1.230063e-04 1 1  ON 13
 uu_14  5.494278e-04 1 1  ON 14
 uu_15  8.355960e-03 1 1  ON 15
 uu_16  8.374384e-03 1 1  ON 16
 uu_17  9.245172e-04 1 1  ON 17
 uu_18  3.719018e-03 1 1  ON 18
 uu_19  5.693932e-03 1 1  ON 19
  ud_0  4.659378e-01 1 1  ON 20
  ud_1  2.686864e-01 1 1  ON 21
  ud_2  1.263479e-01 1 1  ON 22
  ud_3  3.675102e-02 1 1  ON 23
  ud_4 -1.594628e-02 1 1  ON 24
  ud_5 -4.470963e-02 1 1  ON 25
  ud_6 -6.241605e-02 1 1  ON 26
  ud_7 -7.915872e-02 1 1  ON 27
  ud_8 -9.073600e-02 1 1  ON 28
  ud_9 -8.746222e-02 1 1  ON 29
 ud_10 -7.799204e-02 1 1  ON 30
 ud_11 -6.730113e-02 1 1  ON 31
 ud_12 -5.741847e-02 1 1  ON 32
 ud_13 -4.725747e-02 1 1  ON 33
 ud_14 -4.007824e-02 1 1  ON 34
 ud_15 -2.154894e-02 1 1  ON 35
 ud_16 -3.143834e-02 1 1  ON 36
 ud_17 -2.577022e-02 1 1  ON 37
 ud_18 -1.693968e-02 1 1  ON 38
 ud_19 -1.009780e-02 1 1  ON 39
  eH_0 -1.692889e-01 1 1  ON 40
  eH_1 -1.456585e-01 1 1  ON 41
  eH_2 -1.099900e-01 1 1  ON 42
  eH_3 -8.625636e-02 1 1  ON 43
  eH_4 -8.163276e-02 1 1  ON 44
  eH_5 -7.114104e-02 1 1  ON 45
  eH_6 -5.541708e-02 1 1  ON 46
  eH_7 -4.134589e-02 1 1  ON 47
  eH_8 -3.112146e-02 1 1  ON 48
  eH_9 -1.957133e-02 1 1  ON 49
  eO_0 -1.515810e+00 1 1  ON 50
  eO_1 -1.444857e+00 1 1  ON 51
  eO_2 -1.000479e+00 1 1  ON 52
  eO_3 -4.868391e-01 1 1  ON 53
  eO_4 -3.030085e-02 1 1  ON 54
  eO_5  2.517523e-01 1 1  ON 55
  eO_6  3.488324e-01 1 1  ON 56
  eO_7  4.379568e-01 1 1  ON 57
  eO_8  4.248173e-01 1 1  ON 58
  eO_9  3.369930e-01 1 1  ON 59
 uuH_0  9.114038e-04 1 1  ON 60
 uuH_1  7.130828e-03 1 1  ON 61
 uuH_2  1.720290e-03 1 1  ON 62
 uuH_3 -6.796005e-03 1 1  ON 63
 uuH_4 -4.481238e-03 1 1  ON 64
 uuH_5 -6.100376e-04 1 1  ON 65
 uuH_6  1.346742e-02 1 1  ON 66
 uuH_7 -8.334659e-03 1 1  ON 67
 uuH_8  1.476196e-02 1 1  ON 68
 uuH_9 -6.163226e-03 1 1  ON 69
uuH_10 -9.386120e-03 1 1  ON 70
uuH_11 -5.355527e-04 1 1  ON 71
uuH_12 -9.868379e-03 1 1  ON 72
uuH_13  6.162718e-03 1 1  ON 73
uuH_14  6.776366e-03 1 1  ON 74
uuH_15  3.957604e-04 1 1  ON 75
uuH_16  1.601672e-03 1 1  ON 76
uuH_17  8.619244e-03 1 1  ON 77
uuH_18  2.000258e-02 1 1  ON 78
uuH_19  1.047399e-03 1 1  ON 79
uuH_20  4.814828e-04 1 1  ON 80
uuH_21 -1.367882e-02 1 1  ON 81
uuH_22  3.138837e-03 1 1  ON 82
uuH_23 -1.610162e-03 1 1  ON 83
uuH_24  6.690373e-03 1 1  ON 84
uuH_25 -2.192419e-03 1 1  ON 85
 udH_0  1.895470e-04 1 1  ON 86
 udH_1  2.436482e-03 1 1  ON 87
 udH_2  6.010559e-03 1 1  ON 88
 udH_3 -5.012986e-03 1 1  ON 89
 udH_4 -5.967380e-03 1 1  ON 90
 udH_5  3.282252e-04 1 1  ON 91
 udH_6  9.016354e-03 1 1  ON 92
 udH_7 -8.886499e-03 1 1  ON 93
 udH_8  1.566877e-02 1 1  ON 94
 udH_9 -5.840482e-03 1 1  ON 95
udH_10 -7.016936e-03 1 1  ON 96
udH_11 -2.422036e-03 1 1  ON 97
udH_12 -1.033713e-02 1 1  ON 98
udH_13  7.902333e-03 1 1  ON 99
udH_14  3.894952e-03 1 1  ON 100
udH_15  1.288656e-03 1 1  ON 101
udH_16  2.136135e-02 1 1  ON 102
udH_17  1.885515e-03 1 1  ON 103
udH_18  1.049789e-02 1 1  ON 104
udH_19  5.424729e-03 1 1  ON 105
udH_20 -1.516427e-02 1 1  ON 106
udH_21 -1.631279e-03 1 1  ON 107
udH_22 -9.776403e-04 1 1  ON 108
udH_23  8.933455e-03 1 1  ON 109
udH_24 -1.757671e-03 1 1  ON 110
udH_25  6.091594e-04 1 1  ON 111
 uuO_0  1.988768e-04 1 1  ON 112
 uuO_1  5.411197e-03 1 1  ON 113
 uuO_2  5.775103e-03 1 1  ON 114
 uuO_3 -9.892887e-03 1 1  ON 115
 uuO_4 -9.387621e-03 1 1  ON 116
 uuO_5 -1.003994e-04 1 1  ON 117
 uuO_6  7.291474e-03 1 1  ON 118
 uuO_7 -4.784468e-03 1 1  ON 119
 uuO_8  2.154342e-02 1 1  ON 120
 uuO_9 -1.678393e-03 1 1  ON 121
uuO_10 -1.221822e-02 1 1  ON 122
uuO_11  1.273258e-02 1 1  ON 123
uuO_12 -1.870297e-02 1 1  ON 124
uuO_13  1.492021e-02 1 1  ON 125
uuO_14  1.413551e-02 1 1  ON 126
uuO_15  7.768812e-04 1 1  ON 127
uuO_16 -1.552842e-02 1 1  ON 128
uuO_17  4.790767e-02 1 1  ON 129
uuO_18 -5.331147e-02 1 1  ON 130
uuO_19  2.711267e-02 1 1  ON 131
uuO_20  1.318084e-03 1 1  ON 132
uuO_21  6.864006e-03 1 1  ON 133
uuO_22 -5.971182e-03 1 1  ON 134
uuO_23 -2.440807e-03 1 1  ON 135
uuO_24 -1.458975e-03 1 1  ON 136
uuO_25  1.597554e-03 1 1  ON 137
 udO_0 -1.104465e-04 1 1  ON 138
 udO_1 -3.604482e-03 1 1  ON 139
 udO_2  1.165981e-03 1 1  ON 140
 udO_3  3.760617e-04 1 1  ON 141
 udO_4  8.584793e-04 1 1  ON 142
 udO_5  1.776147e-04 1 1  ON 143
 udO_6 -1.262369e-02 1 1  ON 144
 udO_7  5.199472e-03 1 1  ON 145
 udO_8  2.939361e-03 1 1  ON 146
 udO_9  1.329615e-02 1 1  ON 147
udO_10  4.586115e-03 1 1  ON 148
udO_11 -1.460575e-02 1 1  ON 149
udO_12 -1.748232e-03 1 1  ON 150
udO_13 -1.167903e-02 1 1  ON 151
udO_14  7.077916e-05 1 1  ON 152
udO_15  7.257909e-04 1 1  ON 153
udO_16 -1.316410e-02 1 1  ON 154
udO_17 -2.381711e-02 1 1  ON 155
udO_18  3.356448e-02 1 1  ON 156
udO_19 -2.659891e-03 1 1  ON 157
udO_20  1.254504e-02 1 1  ON 158
udO_21 -7.696834e-03 1 1  ON 159
udO_22  8.032936e-04 1 1  ON 160
udO_23 -7.748017e-03 1 1  ON 161
udO_24  3.716830e-03 1 1  ON 162
udO_25 -6.533511e-04 1 1  ON 163
  </optVariables>
   Restore the number of walkers to 8, removing 0 walkers.
</opt>
</optimization-report>
  QMC Execution time = 16.76 secs
  Reusing QMCFixedSampleLinearOptimize
 Using QMCCostFunction::QMCCostFunction
 Using Default Cost Function: Cost = <|E-E_ff|^2>

=========================================================
  Start QMCFixedSampleLinearOptimize
  File Root H2O_AE_HF.s019 append = no 
=========================================================
  Skip QMCDriver::putQMCInfo 
  Resetting Properties of the walkers 1 x 13

=========================================================
  Start VMC
  File Root H2O_AE_HF.s019 append = no 
=========================================================
Using existing walkers 
  Resetting Properties of the walkers 1 x 13

<vmc function="put">
  qmc_counter=3  my_counter=3
  time step      = 5.0000e-01
  blocks         = 40
  steps          = 250
  substeps       = 5
  current        = 0
  target samples = 8.0000e+04
  walkers/mpi    = 8

  stepsbetweensamples = 1
<parameter name="blocks" condition="int">40</parameter>
<parameter name="blocks_between_recompute" condition="int">0</parameter>
<parameter name="check_properties" condition="int">100</parameter>
<parameter name="checkproperties" condition="int">100</parameter>
<parameter name="current" condition="int">0</parameter>
<parameter name="dmcwalkersperthread" condition="real">1.0000e+04</parameter>
<parameter name="maxcpusecs" condition="real">3.6000e+05</parameter>
<parameter name="record_configs" condition="int">0</parameter>
<parameter name="record_walkers" condition="int">1</parameter>
<parameter name="recordconfigs" condition="int">0</parameter>
<parameter name="recordwalkers" condition="int">1</parameter>
<parameter name="rewind" condition="int">0</parameter>
<parameter name="samples" condition="real">8.0000e+04</parameter>
<parameter name="samplesperthread" condition="real">1.0000e+04</parameter>
<parameter name="steps" condition="int">250</parameter>
<parameter name="stepsbetweensamples" condition="int">1</parameter>
<parameter name="store_configs" condition="int">0</parameter>
<parameter name="storeconfigs" condition="int">0</parameter>
<parameter name="sub_steps" condition="int">5</parameter>
<parameter name="substeps" condition="int">5</parameter>
<parameter name="tau" condition="au">5.0000e-01</parameter>
<parameter name="time_step" condition="au">5.0000e-01</parameter>
<parameter name="timestep" condition="au">5.0000e-01</parameter>
<parameter name="use_drift" condition="string">no</parameter>
<parameter name="usedrift" condition="string">no</parameter>
<parameter name="walkers" condition="int">1</parameter>
<parameter name="warmup_steps" condition="int">2</parameter>
<parameter name="warmupsteps" condition="int">2</parameter>
  DumpConfig==false Nothing (configurations, state) will be saved.
  Walker Samples are dumped every 1 steps.
</vmc>
  Set drift_modifier UNR parameter a = 1.0000e+00
  EstimatorManagerBase::add replace LocalEnergy estimator.
  Set drift_modifier UNR parameter a = 1.0000e+00
  EstimatorManagerBase::add replace LocalEnergy estimator.
<optimization-report>
<vmc stage="main" blocks="40">
  Cannot make clones again. Use existing 8 clones
  Initial partition of walkers 0 1 2 3 4 5 6 7 8 
  Using Particle by Particle moves
  Walker moves without drift
  Total Sample Size   =80000
  Walker distribution on root = 0 1 2 3 4 5 6 7 8 
===== Memory Usage after the buffer registration =====
Available memory on node 0, free + buffers : 17130 MB
Memory footprint by rank 0 on node 0       : 394 MB
==================================================
====================================================
  SimpleFixedNodeBranch::finalize after a VMC block
    QMC counter        = 4
    time step          = 0.5
    reference energy   = -76.2873
    reference variance = 1.1207
====================================================
  Execution time = 3.8138e+00
</vmc>
<opt stage="setup">
  <log>
   Reading configurations from h5FileRoot H2O_AE_HF.s019
  QMCCostFunction is created with 8 threads.
  Using Nonlocal PP in Opt: no
   Number of samples loaded to each thread : 10000 10000 10000 10000 10000 10000 10000 10000 
  VMC Eavg = -7.6389e+01
  VMC Evar = 2.7041e+00
  Total weights = 8.0000e+04
  Execution time = 8.7433e+00
  </log>
</opt>
<opt stage="main" walkers="80000">
  <log>

*****************************************
Building overlap and Hamiltonian matrices
*****************************************

Among totally 164 optimized parameters, largest LM parameter change : 9.1728e-02 at parameter 50

******************************************************************************
Init Cost =  -6.8480e+01    New Cost =  -6.8486e+01  Delta Cost =  -5.9231e-03
******************************************************************************

The new set of parameters is valid. Updating the trial wave function!

*****************************************************************************
Applying the update for shift_i =   1.0000e-02     and shift_s =   3.9062e-03
*****************************************************************************
  Execution time = 1.6890e+01
  </log>
  <optVariables href="H2O_AE_HF.s019.opt.xml">
  uu_0  2.268103e-01 1 1  ON 0
  uu_1  1.402214e-01 1 1  ON 1
  uu_2  6.393414e-02 1 1  ON 2
  uu_3  1.000001e-02 1 1  ON 3
  uu_4 -2.963174e-02 1 1  ON 4
  uu_5 -5.448539e-02 1 1  ON 5
  uu_6 -6.753398e-02 1 1  ON 6
  uu_7 -7.632218e-02 1 1  ON 7
  uu_8 -7.917927e-02 1 1  ON 8
  uu_9 -6.595821e-02 1 1  ON 9
 uu_10 -4.382691e-02 1 1  ON 10
 uu_11 -3.221316e-02 1 1  ON 11
 uu_12 -6.385702e-03 1 1  ON 12
 uu_13  9.487418e-03 1 1  ON 13
 uu_14  1.059584e-02 1 1  ON 14
 uu_15  1.491574e-03 1 1  ON 15
 uu_16 -6.967367e-03 1 1  ON 16
 uu_17 -7.190146e-03 1 1  ON 17
 uu_18  8.871919e-04 1 1  ON 18
 uu_19  5.216707e-03 1 1  ON 19
  ud_0  4.796212e-01 1 1  ON 20
  ud_1  2.808502e-01 1 1  ON 21
  ud_2  1.379465e-01 1 1  ON 22
  ud_3  4.718090e-02 1 1  ON 23
  ud_4 -6.994230e-03 1 1  ON 24
  ud_5 -3.589194e-02 1 1  ON 25
  ud_6 -5.387150e-02 1 1  ON 26
  ud_7 -7.169755e-02 1 1  ON 27
  ud_8 -8.485441e-02 1 1  ON 28
  ud_9 -8.823739e-02 1 1  ON 29
 ud_10 -8.027800e-02 1 1  ON 30
 ud_11 -8.119954e-02 1 1  ON 31
 ud_12 -6.646040e-02 1 1  ON 32
 ud_13 -5.373702e-02 1 1  ON 33
 ud_14 -4.838326e-02 1 1  ON 34
 ud_15 -5.213908e-02 1 1  ON 35
 ud_16 -4.088101e-02 1 1  ON 36
 ud_17 -3.024353e-02 1 1  ON 37
 ud_18 -1.862097e-02 1 1  ON 38
 ud_19 -1.073555e-02 1 1  ON 39
  eH_0 -1.710567e-01 1 1  ON 40
  eH_1 -1.427252e-01 1 1  ON 41
  eH_2 -1.048489e-01 1 1  ON 42
  eH_3 -7.961223e-02 1 1  ON 43
  eH_4 -7.268380e-02 1 1  ON 44
  eH_5 -6.038889e-02 1 1  ON 45
  eH_6 -4.593278e-02 1 1  ON 46
  eH_7 -3.822390e-02 1 1  ON 47
  eH_8 -2.932196e-02 1 1  ON 48
  eH_9 -2.040509e-02 1 1  ON 49
  eO_0 -1.607537e+00 1 1  ON 50
  eO_1 -1.532075e+00 1 1  ON 51
  eO_2 -1.081689e+00 1 1  ON 52
  eO_3 -5.450547e-01 1 1  ON 53
  eO_4 -5.918812e-02 1 1  ON 54
  eO_5  2.315287e-01 1 1  ON 55
  eO_6  3.256848e-01 1 1  ON 56
  eO_7  4.320078e-01 1 1  ON 57
  eO_8  4.175513e-01 1 1  ON 58
  eO_9  3.493765e-01 1 1  ON 59
 uuH_0 -1.922276e-03 1 1  ON 60
 uuH_1  5.869227e-03 1 1  ON 61
 uuH_2  7.788739e-03 1 1  ON 62
 uuH_3 -3.415254e-03 1 1  ON 63
 uuH_4 -4.860266e-03 1 1  ON 64
 uuH_5 -6.840803e-04 1 1  ON 65
 uuH_6  1.650119e-02 1 1  ON 66
 uuH_7 -9.852863e-03 1 1  ON 67
 uuH_8  2.315540e-02 1 1  ON 68
 uuH_9 -5.653600e-03 1 1  ON 69
uuH_10 -5.762842e-03 1 1  ON 70
uuH_11 -7.033979e-03 1 1  ON 71
uuH_12 -1.441097e-02 1 1  ON 72
uuH_13  3.860047e-03 1 1  ON 73
uuH_14  1.074053e-02 1 1  ON 74
uuH_15  4.617356e-04 1 1  ON 75
uuH_16 -1.217075e-04 1 1  ON 76
uuH_17  9.472673e-03 1 1  ON 77
uuH_18  2.146563e-02 1 1  ON 78
uuH_19  4.595400e-03 1 1  ON 79
uuH_20  1.469373e-03 1 1  ON 80
uuH_21 -1.515819e-02 1 1  ON 81
uuH_22  3.128200e-03 1 1  ON 82
uuH_23 -2.051464e-03 1 1  ON 83
uuH_24  7.244889e-03 1 1  ON 84
uuH_25 -2.493793e-03 1 1  ON 85
 udH_0  9.291323e-05 1 1  ON 86
 udH_1  2.234234e-03 1 1  ON 87
 udH_2  8.996148e-03 1 1  ON 88
 udH_3 -3.342472e-03 1 1  ON 89
 udH_4 -5.992797e-03 1 1  ON 90
 udH_5  3.502707e-04 1 1  ON 91
 udH_6  1.338397e-02 1 1  ON 92
 udH_7 -1.340569e-02 1 1  ON 93
 udH_8  1.944807e-02 1 1  ON 94
 udH_9 -9.035300e-03 1 1  ON 95
udH_10 -5.275122e-03 1 1  ON 96
udH_11 -5.604275e-03 1 1  ON 97
udH_12 -1.270560e-02 1 1  ON 98
udH_13  6.589325e-03 1 1  ON 99
udH_14  4.949415e-03 1 1  ON 100
udH_15  1.533920e-03 1 1  ON 101
udH_16  2.869095e-02 1 1  ON 102
udH_17 -2.743003e-03 1 1  ON 103
udH_18  1.722016e-02 1 1  ON 104
udH_19  6.374327e-03 1 1  ON 105
udH_20 -1.600638e-02 1 1  ON 106
udH_21 -4.604737e-03 1 1  ON 107
udH_22 -4.144735e-04 1 1  ON 108
udH_23  9.034809e-03 1 1  ON 109
udH_24 -2.152615e-04 1 1  ON 110
udH_25  4.147654e-05 1 1  ON 111
 uuO_0  3.443221e-04 1 1  ON 112
 uuO_1  5.764463e-03 1 1  ON 113
 uuO_2  4.881260e-03 1 1  ON 114
 uuO_3 -1.066905e-02 1 1  ON 115
 uuO_4 -1.058206e-02 1 1  ON 116
 uuO_5 -1.157586e-05 1 1  ON 117
 uuO_6  8.379834e-03 1 1  ON 118
 uuO_7 -5.879824e-03 1 1  ON 119
 uuO_8  2.147712e-02 1 1  ON 120
 uuO_9 -2.250525e-03 1 1  ON 121
uuO_10 -1.447857e-02 1 1  ON 122
uuO_11  1.662924e-02 1 1  ON 123
uuO_12 -2.032728e-02 1 1  ON 124
uuO_13  1.618923e-02 1 1  ON 125
uuO_14  1.512308e-02 1 1  ON 126
uuO_15  7.839183e-04 1 1  ON 127
uuO_16 -1.283558e-02 1 1  ON 128
uuO_17  5.169063e-02 1 1  ON 129
uuO_18 -5.847660e-02 1 1  ON 130
uuO_19  2.856018e-02 1 1  ON 131
uuO_20 -4.329429e-04 1 1  ON 132
uuO_21  7.140598e-03 1 1  ON 133
uuO_22 -5.704058e-03 1 1  ON 134
uuO_23 -1.968157e-03 1 1  ON 135
uuO_24 -1.280358e-03 1 1  ON 136
uuO_25  1.195010e-03 1 1  ON 137
 udO_0  1.019268e-04 1 1  ON 138
 udO_1 -3.723901e-03 1 1  ON 139
 udO_2  1.665393e-03 1 1  ON 140
 udO_3  7.166590e-04 1 1  ON 141
 udO_4  1.495638e-03 1 1  ON 142
 udO_5  2.050284e-04 1 1  ON 143
 udO_6 -1.311304e-02 1 1  ON 144
 udO_7  4.023256e-03 1 1  ON 145
 udO_8  5.880434e-03 1 1  ON 146
 udO_9  1.347306e-02 1 1  ON 147
udO_10  5.784542e-03 1 1  ON 148
udO_11 -1.711016e-02 1 1  ON 149
udO_12 -3.212133e-03 1 1  ON 150
udO_13 -1.055465e-02 1 1  ON 151
udO_14  2.221286e-03 1 1  ON 152
udO_15  6.283264e-04 1 1  ON 153
udO_16 -1.653136e-02 1 1  ON 154
udO_17 -2.046072e-02 1 1  ON 155
udO_18  3.862675e-02 1 1  ON 156
udO_19 -2.539536e-03 1 1  ON 157
udO_20  1.222308e-02 1 1  ON 158
udO_21 -1.142038e-02 1 1  ON 159
udO_22  1.669376e-03 1 1  ON 160
udO_23 -6.662963e-03 1 1  ON 161
udO_24  5.326313e-03 1 1  ON 162
udO_25 -1.235852e-03 1 1  ON 163
  </optVariables>
   Restore the number of walkers to 8, removing 0 walkers.
</opt>
</optimization-report>
  QMC Execution time = 16.91 secs
Loop execution max-interations = 10
  Reusing QMCFixedSampleLinearOptimize
 Using QMCCostFunction::QMCCostFunction
 Using Default Cost Function: Cost = <|E-E_ff|^2>

=========================================================
  Start QMCFixedSampleLinearOptimize
  File Root H2O_AE_HF.s020 append = no 
=========================================================
  Skip QMCDriver::putQMCInfo 
  Resetting Properties of the walkers 1 x 13

=========================================================
  Start VMC
  File Root H2O_AE_HF.s020 append = no 
=========================================================
  Using the current 8 walkers.
  Total number of walkers: 8.0000e+00
  Total weight: 8.0000e+00
  Resetting Properties of the walkers 1 x 13

<vmc function="put">
  qmc_counter=0  my_counter=4
  time step      = 5.0000e-01
  blocks         = 80
  steps          = 250
  substeps       = 5
  current        = 0
  target samples = 1.6000e+05
  walkers/mpi    = 8

  stepsbetweensamples = 1
<parameter name="blocks" condition="int">80</parameter>
<parameter name="blocks_between_recompute" condition="int">0</parameter>
<parameter name="check_properties" condition="int">100</parameter>
<parameter name="checkproperties" condition="int">100</parameter>
<parameter name="current" condition="int">0</parameter>
<parameter name="dmcwalkersperthread" condition="real">2.0000e+04</parameter>
<parameter name="maxcpusecs" condition="real">3.6000e+05</parameter>
<parameter name="record_configs" condition="int">0</parameter>
<parameter name="record_walkers" condition="int">1</parameter>
<parameter name="recordconfigs" condition="int">0</parameter>
<parameter name="recordwalkers" condition="int">1</parameter>
<parameter name="rewind" condition="int">0</parameter>
<parameter name="samples" condition="real">1.6000e+05</parameter>
<parameter name="samplesperthread" condition="real">2.0000e+04</parameter>
<parameter name="steps" condition="int">250</parameter>
<parameter name="stepsbetweensamples" condition="int">1</parameter>
<parameter name="store_configs" condition="int">0</parameter>
<parameter name="storeconfigs" condition="int">0</parameter>
<parameter name="sub_steps" condition="int">5</parameter>
<parameter name="substeps" condition="int">5</parameter>
<parameter name="tau" condition="au">5.0000e-01</parameter>
<parameter name="time_step" condition="au">5.0000e-01</parameter>
<parameter name="timestep" condition="au">5.0000e-01</parameter>
<parameter name="use_drift" condition="string">no</parameter>
<parameter name="usedrift" condition="string">no</parameter>
<parameter name="walkers" condition="int">8</parameter>
<parameter name="warmup_steps" condition="int">5</parameter>
<parameter name="warmupsteps" condition="int">5</parameter>
  DumpConfig==false Nothing (configurations, state) will be saved.
  Walker Samples are dumped every 1 steps.
</vmc>
  Set drift_modifier UNR parameter a = 1.0000e+00
  EstimatorManagerBase::add replace LocalEnergy estimator.
  Set drift_modifier UNR parameter a = 1.0000e+00
  EstimatorManagerBase::add replace LocalEnergy estimator.
<optimization-report>
<vmc stage="main" blocks="80">
  Cannot make clones again. Use existing 8 clones
  Initial partition of walkers 0 1 2 3 4 5 6 7 8 
  Using Particle by Particle moves
  Walker moves without drift
  Total Sample Size   =160000
  Walker distribution on root = 0 1 2 3 4 5 6 7 8 
===== Memory Usage after the buffer registration =====
Available memory on node 0, free + buffers : 17130 MB
Memory footprint by rank 0 on node 0       : 394 MB
==================================================
====================================================
  SimpleFixedNodeBranch::finalize after a VMC block
    QMC counter        = 5
    time step          = 0.5
    reference energy   = -76.4676
    reference variance = 1.06924
====================================================
  Execution time = 7.6216e+00
</vmc>
<opt stage="setup">
  <log>
   Reading configurations from h5FileRoot H2O_AE_HF.s020
  QMCCostFunction is created with 8 threads.
  Using Nonlocal PP in Opt: no
   Number of samples loaded to each thread : 20000 20000 20000 20000 20000 20000 20000 20000 
  VMC Eavg = -7.6383e+01
  VMC Evar = 2.3894e+00
  Total weights = 1.6000e+05
  Execution time = 1.7404e+01
  </log>
</opt>
<opt stage="main" walkers="160000">
  <log>

*****************************************
Building overlap and Hamiltonian matrices
*****************************************

Among totally 164 optimized parameters, largest LM parameter change : 7.1746e-02 at parameter 50

******************************************************************************
Init Cost =  -6.8506e+01    New Cost =  -6.8508e+01  Delta Cost =  -2.4124e-03
******************************************************************************

The new set of parameters is valid. Updating the trial wave function!

*****************************************************************************
Applying the update for shift_i =   1.0000e-02     and shift_s =   3.9062e-03
*****************************************************************************
  Execution time = 3.3735e+01
  </log>
  <optVariables href="H2O_AE_HF.s020.opt.xml">
  uu_0  2.243105e-01 1 1  ON 0
  uu_1  1.348718e-01 1 1  ON 1
  uu_2  5.813534e-02 1 1  ON 2
  uu_3  6.756756e-03 1 1  ON 3
  uu_4 -3.079851e-02 1 1  ON 4
  uu_5 -5.492538e-02 1 1  ON 5
  uu_6 -6.888285e-02 1 1  ON 6
  uu_7 -7.784394e-02 1 1  ON 7
  uu_8 -8.159119e-02 1 1  ON 8
  uu_9 -6.830133e-02 1 1  ON 9
 uu_10 -4.054390e-02 1 1  ON 10
 uu_11 -2.791562e-02 1 1  ON 11
 uu_12 -1.689794e-03 1 1  ON 12
 uu_13  1.154377e-02 1 1  ON 13
 uu_14  5.686868e-03 1 1  ON 14
 uu_15  5.735422e-03 1 1  ON 15
 uu_16 -2.020671e-03 1 1  ON 16
 uu_17 -4.018744e-03 1 1  ON 17
 uu_18  4.625122e-03 1 1  ON 18
 uu_19  6.192491e-03 1 1  ON 19
  ud_0  4.871839e-01 1 1  ON 20
  ud_1  2.884247e-01 1 1  ON 21
  ud_2  1.457265e-01 1 1  ON 22
  ud_3  5.556685e-02 1 1  ON 23
  ud_4  1.450996e-03 1 1  ON 24
  ud_5 -2.791633e-02 1 1  ON 25
  ud_6 -4.811153e-02 1 1  ON 26
  ud_7 -6.921157e-02 1 1  ON 27
  ud_8 -8.462564e-02 1 1  ON 28
  ud_9 -8.891488e-02 1 1  ON 29
 ud_10 -8.168618e-02 1 1  ON 30
 ud_11 -8.739103e-02 1 1  ON 31
 ud_12 -8.008612e-02 1 1  ON 32
 ud_13 -6.617657e-02 1 1  ON 33
 ud_14 -6.147169e-02 1 1  ON 34
 ud_15 -5.467965e-02 1 1  ON 35
 ud_16 -4.536053e-02 1 1  ON 36
 ud_17 -3.053942e-02 1 1  ON 37
 ud_18 -1.842848e-02 1 1  ON 38
 ud_19 -1.237690e-02 1 1  ON 39
  eH_0 -1.712972e-01 1 1  ON 40
  eH_1 -1.382841e-01 1 1  ON 41
  eH_2 -9.706499e-02 1 1  ON 42
  eH_3 -7.211729e-02 1 1  ON 43
  eH_4 -6.808236e-02 1 1  ON 44
  eH_5 -5.978844e-02 1 1  ON 45
  eH_6 -4.418297e-02 1 1  ON 46
  eH_7 -3.374051e-02 1 1  ON 47
  eH_8 -2.708239e-02 1 1  ON 48
  eH_9 -2.203785e-02 1 1  ON 49
  eO_0 -1.679283e+00 1 1  ON 50
  eO_1 -1.599321e+00 1 1  ON 51
  eO_2 -1.145316e+00 1 1  ON 52
  eO_3 -6.119481e-01 1 1  ON 53
  eO_4 -1.175017e-01 1 1  ON 54
  eO_5  2.023024e-01 1 1  ON 55
  eO_6  3.005326e-01 1 1  ON 56
  eO_7  4.080119e-01 1 1  ON 57
  eO_8  4.040471e-01 1 1  ON 58
  eO_9  3.393587e-01 1 1  ON 59
 uuH_0 -1.095981e-03 1 1  ON 60
 uuH_1 -1.504255e-03 1 1  ON 61
 uuH_2  6.334097e-03 1 1  ON 62
 uuH_3 -2.328849e-05 1 1  ON 63
 uuH_4 -4.958160e-03 1 1  ON 64
 uuH_5  1.151956e-03 1 1  ON 65
 uuH_6  8.101600e-03 1 1  ON 66
 uuH_7 -1.722258e-03 1 1  ON 67
 uuH_8  1.765907e-02 1 1  ON 68
 uuH_9 -8.816032e-03 1 1  ON 69
uuH_10 -3.879942e-03 1 1  ON 70
uuH_11 -7.593614e-03 1 1  ON 71
uuH_12 -1.188743e-02 1 1  ON 72
uuH_13  5.217235e-03 1 1  ON 73
uuH_14  8.898903e-03 1 1  ON 74
uuH_15  4.031956e-04 1 1  ON 75
uuH_16  1.521662e-02 1 1  ON 76
uuH_17  6.201634e-03 1 1  ON 77
uuH_18  1.762131e-02 1 1  ON 78
uuH_19  4.664691e-03 1 1  ON 79
uuH_20 -5.329508e-03 1 1  ON 80
uuH_21 -1.263409e-02 1 1  ON 81
uuH_22  2.420382e-03 1 1  ON 82
uuH_23  1.064655e-03 1 1  ON 83
uuH_24  6.362270e-03 1 1  ON 84
uuH_25 -2.127594e-03 1 1  ON 85
 udH_0  1.297698e-04 1 1  ON 86
 udH_1  2.514500e-03 1 1  ON 87
 udH_2  9.435108e-03 1 1  ON 88
 udH_3 -2.869763e-03 1 1  ON 89
 udH_4 -5.990407e-03 1 1  ON 90
 udH_5  3.429477e-04 1 1  ON 91
 udH_6  1.451545e-02 1 1  ON 92
 udH_7 -1.089422e-02 1 1  ON 93
 udH_8  1.686237e-02 1 1  ON 94
 udH_9 -1.058485e-02 1 1  ON 95
udH_10 -5.061668e-03 1 1  ON 96
udH_11 -7.012888e-03 1 1  ON 97
udH_12 -9.669777e-03 1 1  ON 98
udH_13  5.506815e-03 1 1  ON 99
udH_14  1.956665e-03 1 1  ON 100
udH_15  1.555502e-03 1 1  ON 101
udH_16  3.628319e-02 1 1  ON 102
udH_17 -9.566669e-03 1 1  ON 103
udH_18  1.629725e-02 1 1  ON 104
udH_19  5.003267e-03 1 1  ON 105
udH_20 -1.835146e-02 1 1  ON 106
udH_21 -5.187404e-05 1 1  ON 107
udH_22 -1.735284e-03 1 1  ON 108
udH_23  1.007936e-02 1 1  ON 109
udH_24 -2.929098e-03 1 1  ON 110
udH_25  1.149900e-03 1 1  ON 111
 uuO_0  1.877016e-04 1 1  ON 112
 uuO_1  5.258746e-03 1 1  ON 113
 uuO_2  4.502699e-03 1 1  ON 114
 uuO_3 -9.964768e-03 1 1  ON 115
 uuO_4 -9.568023e-03 1 1  ON 116
 uuO_5 -2.683711e-05 1 1  ON 117
 uuO_6  7.003428e-03 1 1  ON 118
 uuO_7 -4.566360e-03 1 1  ON 119
 uuO_8  1.788777e-02 1 1  ON 120
 uuO_9 -1.197087e-03 1 1  ON 121
uuO_10 -1.320837e-02 1 1  ON 122
uuO_11  1.675203e-02 1 1  ON 123
uuO_12 -1.728199e-02 1 1  ON 124
uuO_13  1.403101e-02 1 1  ON 125
uuO_14  1.227601e-02 1 1  ON 126
uuO_15  8.297877e-04 1 1  ON 127
uuO_16 -1.537284e-02 1 1  ON 128
uuO_17  4.675413e-02 1 1  ON 129
uuO_18 -5.788576e-02 1 1  ON 130
uuO_19  2.629516e-02 1 1  ON 131
uuO_20  2.518735e-03 1 1  ON 132
uuO_21  8.670186e-03 1 1  ON 133
uuO_22 -5.996025e-03 1 1  ON 134
uuO_23 -3.343753e-03 1 1  ON 135
uuO_24 -1.885606e-03 1 1  ON 136
uuO_25  1.606326e-03 1 1  ON 137
 udO_0 -8.393383e-05 1 1  ON 138
 udO_1 -3.494603e-03 1 1  ON 139
 udO_2  1.291817e-03 1 1  ON 140
 udO_3  3.232572e-04 1 1  ON 141
 udO_4  9.806426e-04 1 1  ON 142
 udO_5  2.861285e-04 1 1  ON 143
 udO_6 -1.270782e-02 1 1  ON 144
 udO_7  4.357506e-03 1 1  ON 145
 udO_8  4.465069e-03 1 1  ON 146
 udO_9  1.351995e-02 1 1  ON 147
udO_10  4.660476e-03 1 1  ON 148
udO_11 -1.483536e-02 1 1  ON 149
udO_12 -3.190086e-03 1 1  ON 150
udO_13 -1.112898e-02 1 1  ON 151
udO_14  1.324367e-03 1 1  ON 152
udO_15  8.310505e-04 1 1  ON 153
udO_16 -1.484235e-02 1 1  ON 154
udO_17 -2.158427e-02 1 1  ON 155
udO_18  3.312432e-02 1 1  ON 156
udO_19 -5.663231e-04 1 1  ON 157
udO_20  1.306407e-02 1 1  ON 158
udO_21 -8.585569e-03 1 1  ON 159
udO_22  4.438541e-04 1 1  ON 160
udO_23 -7.898211e-03 1 1  ON 161
udO_24  4.106806e-03 1 1  ON 162
udO_25 -5.988594e-04 1 1  ON 163
  </optVariables>
   Restore the number of walkers to 8, removing 0 walkers.
</opt>
</optimization-report>
  QMC Execution time = 33.76 secs
  Reusing QMCFixedSampleLinearOptimize
 Using QMCCostFunction::QMCCostFunction
 Using Default Cost Function: Cost = <|E-E_ff|^2>

=========================================================
  Start QMCFixedSampleLinearOptimize
  File Root H2O_AE_HF.s021 append = no 
=========================================================
  Skip QMCDriver::putQMCInfo 
  Resetting Properties of the walkers 1 x 13

=========================================================
  Start VMC
  File Root H2O_AE_HF.s021 append = no 
=========================================================
Using existing walkers 
  Resetting Properties of the walkers 1 x 13

<vmc function="put">
  qmc_counter=1  my_counter=5
  time step      = 5.0000e-01
  blocks         = 80
  steps          = 250
  substeps       = 5
  current        = 0
  target samples = 1.6000e+05
  walkers/mpi    = 8

  stepsbetweensamples = 1
<parameter name="blocks" condition="int">80</parameter>
<parameter name="blocks_between_recompute" condition="int">0</parameter>
<parameter name="check_properties" condition="int">100</parameter>
<parameter name="checkproperties" condition="int">100</parameter>
<parameter name="current" condition="int">0</parameter>
<parameter name="dmcwalkersperthread" condition="real">2.0000e+04</parameter>
<parameter name="maxcpusecs" condition="real">3.6000e+05</parameter>
<parameter name="record_configs" condition="int">0</parameter>
<parameter name="record_walkers" condition="int">1</parameter>
<parameter name="recordconfigs" condition="int">0</parameter>
<parameter name="recordwalkers" condition="int">1</parameter>
<parameter name="rewind" condition="int">0</parameter>
<parameter name="samples" condition="real">1.6000e+05</parameter>
<parameter name="samplesperthread" condition="real">2.0000e+04</parameter>
<parameter name="steps" condition="int">250</parameter>
<parameter name="stepsbetweensamples" condition="int">1</parameter>
<parameter name="store_configs" condition="int">0</parameter>
<parameter name="storeconfigs" condition="int">0</parameter>
<parameter name="sub_steps" condition="int">5</parameter>
<parameter name="substeps" condition="int">5</parameter>
<parameter name="tau" condition="au">5.0000e-01</parameter>
<parameter name="time_step" condition="au">5.0000e-01</parameter>
<parameter name="timestep" condition="au">5.0000e-01</parameter>
<parameter name="use_drift" condition="string">no</parameter>
<parameter name="usedrift" condition="string">no</parameter>
<parameter name="walkers" condition="int">1</parameter>
<parameter name="warmup_steps" condition="int">5</parameter>
<parameter name="warmupsteps" condition="int">5</parameter>
  DumpConfig==false Nothing (configurations, state) will be saved.
  Walker Samples are dumped every 1 steps.
</vmc>
  Set drift_modifier UNR parameter a = 1.0000e+00
  EstimatorManagerBase::add replace LocalEnergy estimator.
  Set drift_modifier UNR parameter a = 1.0000e+00
  EstimatorManagerBase::add replace LocalEnergy estimator.
<optimization-report>
<vmc stage="main" blocks="80">
  Cannot make clones again. Use existing 8 clones
  Initial partition of walkers 0 1 2 3 4 5 6 7 8 
  Using Particle by Particle moves
  Walker moves without drift
  Total Sample Size   =160000
  Walker distribution on root = 0 1 2 3 4 5 6 7 8 
===== Memory Usage after the buffer registration =====
Available memory on node 0, free + buffers : 17018 MB
Memory footprint by rank 0 on node 0       : 828 MB
==================================================
====================================================
  SimpleFixedNodeBranch::finalize after a VMC block
    QMC counter        = 6
    time step          = 0.5
    reference energy   = -75.8423
    reference variance = 7.38892
====================================================
  Execution time = 8.0555e+00
</vmc>
<opt stage="setup">
  <log>
   Reading configurations from h5FileRoot H2O_AE_HF.s021
  QMCCostFunction is created with 8 threads.
  Using Nonlocal PP in Opt: no
   Number of samples loaded to each thread : 20000 20000 20000 20000 20000 20000 20000 20000 
  VMC Eavg = -7.6390e+01
  VMC Evar = 2.3709e+00
  Total weights = 1.6000e+05
  Execution time = 1.7490e+01
  </log>
</opt>
<opt stage="main" walkers="160000">
  <log>

*****************************************
Building overlap and Hamiltonian matrices
*****************************************

Among totally 164 optimized parameters, largest LM parameter change : 7.5577e-02 at parameter 50

******************************************************************************
Init Cost =  -6.8514e+01    New Cost =  -6.8514e+01  Delta Cost =  -5.1278e-04
******************************************************************************

The new set of parameters is valid. Updating the trial wave function!

*****************************************************************************
Applying the update for shift_i =   1.0000e-02     and shift_s =   3.9062e-03
*****************************************************************************
  Execution time = 3.4118e+01
  </log>
  <optVariables href="H2O_AE_HF.s021.opt.xml">
  uu_0  2.328507e-01 1 1  ON 0
  uu_1  1.452326e-01 1 1  ON 1
  uu_2  6.974662e-02 1 1  ON 2
  uu_3  1.797060e-02 1 1  ON 3
  uu_4 -2.107985e-02 1 1  ON 4
  uu_5 -4.808131e-02 1 1  ON 5
  uu_6 -6.281627e-02 1 1  ON 6
  uu_7 -7.376706e-02 1 1  ON 7
  uu_8 -7.794695e-02 1 1  ON 8
  uu_9 -6.791768e-02 1 1  ON 9
 uu_10 -4.477337e-02 1 1  ON 10
 uu_11 -3.456189e-02 1 1  ON 11
 uu_12 -2.552351e-02 1 1  ON 12
 uu_13 -1.143842e-02 1 1  ON 13
[...]
<parameter name="maxcpusecs" condition="real">3.6000e+05</parameter>
<parameter name="record_configs" condition="int">0</parameter>
<parameter name="record_walkers" condition="int">1</parameter>
<parameter name="recordconfigs" condition="int">0</parameter>
<parameter name="recordwalkers" condition="int">1</parameter>
<parameter name="rewind" condition="int">0</parameter>
<parameter name="samples" condition="real">1.6000e+05</parameter>
<parameter name="samplesperthread" condition="real">2.0000e+04</parameter>
<parameter name="steps" condition="int">250</parameter>
<parameter name="stepsbetweensamples" condition="int">1</parameter>
<parameter name="store_configs" condition="int">0</parameter>
<parameter name="storeconfigs" condition="int">0</parameter>
<parameter name="sub_steps" condition="int">5</parameter>
<parameter name="substeps" condition="int">5</parameter>
<parameter name="tau" condition="au">5.0000e-01</parameter>
<parameter name="time_step" condition="au">5.0000e-01</parameter>
<parameter name="timestep" condition="au">5.0000e-01</parameter>
<parameter name="use_drift" condition="string">no</parameter>
<parameter name="usedrift" condition="string">no</parameter>
<parameter name="walkers" condition="int">1</parameter>
<parameter name="warmup_steps" condition="int">5</parameter>
<parameter name="warmupsteps" condition="int">5</parameter>
  DumpConfig==false Nothing (configurations, state) will be saved.
  Walker Samples are dumped every 1 steps.
</vmc>
  Set drift_modifier UNR parameter a = 1.0000e+00
  EstimatorManagerBase::add replace LocalEnergy estimator.
  Set drift_modifier UNR parameter a = 1.0000e+00
  EstimatorManagerBase::add replace LocalEnergy estimator.
<optimization-report>
<vmc stage="main" blocks="80">
  Cannot make clones again. Use existing 8 clones
  Initial partition of walkers 0 1 2 3 4 5 6 7 8 
  Using Particle by Particle moves
  Walker moves without drift
  Total Sample Size   =160000
  Walker distribution on root = 0 1 2 3 4 5 6 7 8 
===== Memory Usage after the buffer registration =====
Available memory on node 0, free + buffers : 16724 MB
Memory footprint by rank 0 on node 0       : 829 MB
==================================================
====================================================
  SimpleFixedNodeBranch::finalize after a VMC block
    QMC counter        = 13
    time step          = 0.5
    reference energy   = -76.1259
    reference variance = 0.521441
====================================================
  Execution time = 7.9094e+00
</vmc>
<opt stage="setup">
  <log>
   Reading configurations from h5FileRoot H2O_AE_HF.s028
  QMCCostFunction is created with 8 threads.
  Using Nonlocal PP in Opt: no
   Number of samples loaded to each thread : 20000 20000 20000 20000 20000 20000 20000 20000 
  VMC Eavg = -7.6385e+01
  VMC Evar = 2.5082e+00
  Total weights = 1.6000e+05
  Execution time = 1.7453e+01
  </log>
</opt>
<opt stage="main" walkers="160000">
  <log>

*****************************************
Building overlap and Hamiltonian matrices
*****************************************

Among totally 164 optimized parameters, largest LM parameter change : 4.8221e-02 at parameter 50

******************************************************************************
Init Cost =  -6.8496e+01    New Cost =  -6.8499e+01  Delta Cost =  -3.6126e-03
******************************************************************************

The new set of parameters is valid. Updating the trial wave function!

*****************************************************************************
Applying the update for shift_i =   1.0000e-02     and shift_s =   1.5625e-02
*****************************************************************************
  Execution time = 3.4047e+01
  </log>
  <optVariables href="H2O_AE_HF.s028.opt.xml">
  uu_0  2.464931e-01 1 1  ON 0
  uu_1  1.606453e-01 1 1  ON 1
  uu_2  8.193928e-02 1 1  ON 2
  uu_3  2.486349e-02 1 1  ON 3
  uu_4 -1.678517e-02 1 1  ON 4
  uu_5 -4.326549e-02 1 1  ON 5
  uu_6 -5.849852e-02 1 1  ON 6
  uu_7 -7.023664e-02 1 1  ON 7
  uu_8 -7.606311e-02 1 1  ON 8
  uu_9 -6.955514e-02 1 1  ON 9
 uu_10 -5.218743e-02 1 1  ON 10
 uu_11 -5.080170e-02 1 1  ON 11
 uu_12 -3.760240e-02 1 1  ON 12
 uu_13 -2.461065e-02 1 1  ON 13
 uu_14 -9.664093e-03 1 1  ON 14
 uu_15 -1.148110e-02 1 1  ON 15
 uu_16 -7.587498e-03 1 1  ON 16
 uu_17 -1.309080e-03 1 1  ON 17
 uu_18  8.526475e-03 1 1  ON 18
 uu_19  5.964881e-03 1 1  ON 19
  ud_0  5.062323e-01 1 1  ON 20
  ud_1  3.086931e-01 1 1  ON 21
  ud_2  1.652297e-01 1 1  ON 22
  ud_3  7.464944e-02 1 1  ON 23
  ud_4  1.979699e-02 1 1  ON 24
  ud_5 -9.935108e-03 1 1  ON 25
  ud_6 -3.122016e-02 1 1  ON 26
  ud_7 -5.360296e-02 1 1  ON 27
  ud_8 -7.202696e-02 1 1  ON 28
  ud_9 -8.289525e-02 1 1  ON 29
 ud_10 -8.358403e-02 1 1  ON 30
 ud_11 -9.382979e-02 1 1  ON 31
 ud_12 -9.801547e-02 1 1  ON 32
 ud_13 -1.013904e-01 1 1  ON 33
 ud_14 -9.520958e-02 1 1  ON 34
 ud_15 -8.059789e-02 1 1  ON 35
 ud_16 -6.280161e-02 1 1  ON 36
 ud_17 -4.482160e-02 1 1  ON 37
 ud_18 -2.735178e-02 1 1  ON 38
 ud_19 -1.549495e-02 1 1  ON 39
  eH_0 -1.650745e-01 1 1  ON 40
  eH_1 -1.330062e-01 1 1  ON 41
  eH_2 -9.132482e-02 1 1  ON 42
  eH_3 -6.943167e-02 1 1  ON 43
  eH_4 -6.640826e-02 1 1  ON 44
  eH_5 -5.480830e-02 1 1  ON 45
  eH_6 -3.852029e-02 1 1  ON 46
  eH_7 -2.634909e-02 1 1  ON 47
  eH_8 -1.449649e-02 1 1  ON 48
  eH_9 -1.017607e-02 1 1  ON 49
  eO_0 -2.014206e+00 1 1  ON 50
  eO_1 -1.905936e+00 1 1  ON 51
  eO_2 -1.428729e+00 1 1  ON 52
  eO_3 -8.727620e-01 1 1  ON 53
  eO_4 -3.473173e-01 1 1  ON 54
  eO_5  2.126531e-02 1 1  ON 55
  eO_6  1.283099e-01 1 1  ON 56
  eO_7  2.640153e-01 1 1  ON 57
  eO_8  2.965878e-01 1 1  ON 58
  eO_9  2.722538e-01 1 1  ON 59
 uuH_0  4.346843e-03 1 1  ON 60
 uuH_1  9.054597e-03 1 1  ON 61
 uuH_2  1.996833e-03 1 1  ON 62
 uuH_3 -8.657433e-03 1 1  ON 63
 uuH_4 -5.686810e-03 1 1  ON 64
 uuH_5 -8.909401e-04 1 1  ON 65
 uuH_6  1.629899e-02 1 1  ON 66
 uuH_7 -2.513255e-03 1 1  ON 67
 uuH_8  2.272166e-02 1 1  ON 68
 uuH_9 -1.391781e-02 1 1  ON 69
uuH_10 -1.126131e-02 1 1  ON 70
uuH_11 -1.066673e-02 1 1  ON 71
uuH_12 -1.117902e-02 1 1  ON 72
uuH_13  1.571869e-02 1 1  ON 73
uuH_14  1.128907e-02 1 1  ON 74
uuH_15 -1.951473e-04 1 1  ON 75
uuH_16  1.776256e-02 1 1  ON 76
uuH_17  1.740910e-02 1 1  ON 77
uuH_18  2.197202e-02 1 1  ON 78
uuH_19  5.856804e-04 1 1  ON 79
uuH_20 -1.179775e-02 1 1  ON 80
uuH_21 -1.188599e-02 1 1  ON 81
uuH_22  2.947926e-03 1 1  ON 82
uuH_23  4.116871e-03 1 1  ON 83
uuH_24  4.381674e-03 1 1  ON 84
uuH_25 -1.714000e-03 1 1  ON 85
 udH_0 -1.219604e-03 1 1  ON 86
 udH_1  3.312994e-03 1 1  ON 87
 udH_2  1.185711e-02 1 1  ON 88
 udH_3 -3.627036e-03 1 1  ON 89
 udH_4 -7.280598e-03 1 1  ON 90
 udH_5  2.540900e-04 1 1  ON 91
 udH_6  1.657307e-02 1 1  ON 92
 udH_7 -9.387700e-03 1 1  ON 93
 udH_8  2.079984e-02 1 1  ON 94
 udH_9 -1.104576e-02 1 1  ON 95
udH_10 -6.191981e-03 1 1  ON 96
udH_11 -4.997689e-03 1 1  ON 97
udH_12 -1.304089e-02 1 1  ON 98
udH_13  7.478713e-03 1 1  ON 99
udH_14  5.011805e-03 1 1  ON 100
udH_15  1.640050e-03 1 1  ON 101
udH_16  2.822770e-02 1 1  ON 102
udH_17  1.057809e-03 1 1  ON 103
udH_18  5.621539e-03 1 1  ON 104
udH_19  1.027130e-02 1 1  ON 105
udH_20 -1.478768e-02 1 1  ON 106
udH_21 -2.161985e-04 1 1  ON 107
udH_22 -2.512251e-03 1 1  ON 108
udH_23  7.708583e-03 1 1  ON 109
udH_24 -2.064363e-03 1 1  ON 110
udH_25  1.156685e-03 1 1  ON 111
 uuO_0  3.608481e-04 1 1  ON 112
 uuO_1  4.947197e-03 1 1  ON 113
 uuO_2  3.928400e-03 1 1  ON 114
 uuO_3 -9.593170e-03 1 1  ON 115
 uuO_4 -8.687426e-03 1 1  ON 116
 uuO_5  6.758797e-05 1 1  ON 117
 uuO_6  5.945128e-03 1 1  ON 118
 uuO_7 -6.314804e-03 1 1  ON 119
 uuO_8  1.767928e-02 1 1  ON 120
 uuO_9 -5.138302e-04 1 1  ON 121
uuO_10 -1.222222e-02 1 1  ON 122
uuO_11  1.626247e-02 1 1  ON 123
uuO_12 -1.766892e-02 1 1  ON 124
uuO_13  1.358639e-02 1 1  ON 125
uuO_14  1.241181e-02 1 1  ON 126
uuO_15  9.789438e-04 1 1  ON 127
uuO_16 -1.590085e-02 1 1  ON 128
uuO_17  4.537894e-02 1 1  ON 129
uuO_18 -5.403301e-02 1 1  ON 130
uuO_19  2.661908e-02 1 1  ON 131
uuO_20  1.832325e-03 1 1  ON 132
uuO_21  7.433104e-03 1 1  ON 133
uuO_22 -6.034122e-03 1 1  ON 134
uuO_23 -2.365845e-03 1 1  ON 135
uuO_24 -1.690930e-03 1 1  ON 136
uuO_25  1.647155e-03 1 1  ON 137
 udO_0  9.002851e-05 1 1  ON 138
 udO_1 -3.325729e-03 1 1  ON 139
 udO_2  1.169875e-03 1 1  ON 140
 udO_3  1.091021e-04 1 1  ON 141
 udO_4  8.158511e-04 1 1  ON 142
 udO_5  3.863335e-04 1 1  ON 143
 udO_6 -1.251303e-02 1 1  ON 144
 udO_7  4.922168e-03 1 1  ON 145
 udO_8  5.755304e-03 1 1  ON 146
 udO_9  1.322668e-02 1 1  ON 147
udO_10  4.232310e-03 1 1  ON 148
udO_11 -1.691053e-02 1 1  ON 149
udO_12 -3.703958e-03 1 1  ON 150
udO_13 -1.067377e-02 1 1  ON 151
udO_14  2.085872e-03 1 1  ON 152
udO_15  7.660782e-04 1 1  ON 153
udO_16 -1.389278e-02 1 1  ON 154
udO_17 -2.272292e-02 1 1  ON 155
udO_18  4.022069e-02 1 1  ON 156
udO_19 -2.035705e-03 1 1  ON 157
udO_20  1.206498e-02 1 1  ON 158
udO_21 -1.138771e-02 1 1  ON 159
udO_22  1.389294e-03 1 1  ON 160
udO_23 -6.853069e-03 1 1  ON 161
udO_24  5.187127e-03 1 1  ON 162
udO_25 -1.072425e-03 1 1  ON 163
  </optVariables>
   Restore the number of walkers to 8, removing 0 walkers.
</opt>
</optimization-report>
  QMC Execution time = 34.06 secs
  Reusing QMCFixedSampleLinearOptimize
 Using QMCCostFunction::QMCCostFunction
 Using Default Cost Function: Cost = <|E-E_ff|^2>

=========================================================
  Start QMCFixedSampleLinearOptimize
  File Root H2O_AE_HF.s029 append = no 
=========================================================
  Skip QMCDriver::putQMCInfo 
  Resetting Properties of the walkers 1 x 13

=========================================================
  Start VMC
  File Root H2O_AE_HF.s029 append = no 
=========================================================
Using existing walkers 
  Resetting Properties of the walkers 1 x 13

<vmc function="put">
  qmc_counter=9  my_counter=13
  time step      = 5.0000e-01
  blocks         = 80
  steps          = 250
  substeps       = 5
  current        = 0
  target samples = 1.6000e+05
  walkers/mpi    = 8

  stepsbetweensamples = 1
<parameter name="blocks" condition="int">80</parameter>
<parameter name="blocks_between_recompute" condition="int">0</parameter>
<parameter name="check_properties" condition="int">100</parameter>
<parameter name="checkproperties" condition="int">100</parameter>
<parameter name="current" condition="int">0</parameter>
<parameter name="dmcwalkersperthread" condition="real">2.0000e+04</parameter>
<parameter name="maxcpusecs" condition="real">3.6000e+05</parameter>
<parameter name="record_configs" condition="int">0</parameter>
<parameter name="record_walkers" condition="int">1</parameter>
<parameter name="recordconfigs" condition="int">0</parameter>
<parameter name="recordwalkers" condition="int">1</parameter>
<parameter name="rewind" condition="int">0</parameter>
<parameter name="samples" condition="real">1.6000e+05</parameter>
<parameter name="samplesperthread" condition="real">2.0000e+04</parameter>
<parameter name="steps" condition="int">250</parameter>
<parameter name="stepsbetweensamples" condition="int">1</parameter>
<parameter name="store_configs" condition="int">0</parameter>
<parameter name="storeconfigs" condition="int">0</parameter>
<parameter name="sub_steps" condition="int">5</parameter>
<parameter name="substeps" condition="int">5</parameter>
<parameter name="tau" condition="au">5.0000e-01</parameter>
<parameter name="time_step" condition="au">5.0000e-01</parameter>
<parameter name="timestep" condition="au">5.0000e-01</parameter>
<parameter name="use_drift" condition="string">no</parameter>
<parameter name="usedrift" condition="string">no</parameter>
<parameter name="walkers" condition="int">1</parameter>
<parameter name="warmup_steps" condition="int">5</parameter>
<parameter name="warmupsteps" condition="int">5</parameter>
  DumpConfig==false Nothing (configurations, state) will be saved.
  Walker Samples are dumped every 1 steps.
</vmc>
  Set drift_modifier UNR parameter a = 1.0000e+00
  EstimatorManagerBase::add replace LocalEnergy estimator.
  Set drift_modifier UNR parameter a = 1.0000e+00
  EstimatorManagerBase::add replace LocalEnergy estimator.
<optimization-report>
<vmc stage="main" blocks="80">
  Cannot make clones again. Use existing 8 clones
  Initial partition of walkers 0 1 2 3 4 5 6 7 8 
  Using Particle by Particle moves
  Walker moves without drift
  Total Sample Size   =160000
  Walker distribution on root = 0 1 2 3 4 5 6 7 8 
===== Memory Usage after the buffer registration =====
Available memory on node 0, free + buffers : 16724 MB
Memory footprint by rank 0 on node 0       : 829 MB
==================================================
====================================================
  SimpleFixedNodeBranch::finalize after a VMC block
    QMC counter        = 14
    time step          = 0.5
    reference energy   = -76.3094
    reference variance = 0.719559
====================================================
  Execution time = 7.9223e+00
</vmc>
<opt stage="setup">
  <log>
   Reading configurations from h5FileRoot H2O_AE_HF.s029
  QMCCostFunction is created with 8 threads.
  Using Nonlocal PP in Opt: no
   Number of samples loaded to each thread : 20000 20000 20000 20000 20000 20000 20000 20000 
  VMC Eavg = -7.6381e+01
  VMC Evar = 2.6502e+00
  Total weights = 1.6000e+05
  Execution time = 1.7431e+01
  </log>
</opt>
<opt stage="main" walkers="160000">
  <log>

*****************************************
Building overlap and Hamiltonian matrices
*****************************************

Among totally 164 optimized parameters, largest LM parameter change : 7.6985e-01 at parameter 33

******************************************************************************
Init Cost =  -6.8478e+01    New Cost =  -4.4042e+01  Delta Cost =   2.4436e+01
******************************************************************************

The new set of parameters is not valid. Revert to the old set!
Update shift_s_base to 2.0000e+00

*****************************************************************************
Applying the update for shift_i =   1.0000e-02     and shift_s =   6.2500e-02
*****************************************************************************
  Execution time = 3.4019e+01
  </log>
  <optVariables href="H2O_AE_HF.s029.opt.xml">
  uu_0  2.464931e-01 1 1  ON 0
  uu_1  1.606453e-01 1 1  ON 1
  uu_2  8.193928e-02 1 1  ON 2
  uu_3  2.486349e-02 1 1  ON 3
  uu_4 -1.678517e-02 1 1  ON 4
  uu_5 -4.326549e-02 1 1  ON 5
  uu_6 -5.849852e-02 1 1  ON 6
  uu_7 -7.023664e-02 1 1  ON 7
  uu_8 -7.606311e-02 1 1  ON 8
  uu_9 -6.955514e-02 1 1  ON 9
 uu_10 -5.218743e-02 1 1  ON 10
 uu_11 -5.080170e-02 1 1  ON 11
 uu_12 -3.760240e-02 1 1  ON 12
 uu_13 -2.461065e-02 1 1  ON 13
 uu_14 -9.664093e-03 1 1  ON 14
 uu_15 -1.148110e-02 1 1  ON 15
 uu_16 -7.587498e-03 1 1  ON 16
 uu_17 -1.309080e-03 1 1  ON 17
 uu_18  8.526475e-03 1 1  ON 18
 uu_19  5.964881e-03 1 1  ON 19
  ud_0  5.062323e-01 1 1  ON 20
  ud_1  3.086931e-01 1 1  ON 21
  ud_2  1.652297e-01 1 1  ON 22
  ud_3  7.464944e-02 1 1  ON 23
  ud_4  1.979699e-02 1 1  ON 24
  ud_5 -9.935108e-03 1 1  ON 25
  ud_6 -3.122016e-02 1 1  ON 26
  ud_7 -5.360296e-02 1 1  ON 27
  ud_8 -7.202696e-02 1 1  ON 28
  ud_9 -8.289525e-02 1 1  ON 29
 ud_10 -8.358403e-02 1 1  ON 30
 ud_11 -9.382979e-02 1 1  ON 31
 ud_12 -9.801547e-02 1 1  ON 32
 ud_13 -1.013904e-01 1 1  ON 33
 ud_14 -9.520958e-02 1 1  ON 34
 ud_15 -8.059789e-02 1 1  ON 35
 ud_16 -6.280161e-02 1 1  ON 36
 ud_17 -4.482160e-02 1 1  ON 37
 ud_18 -2.735178e-02 1 1  ON 38
 ud_19 -1.549495e-02 1 1  ON 39
  eH_0 -1.650745e-01 1 1  ON 40
  eH_1 -1.330062e-01 1 1  ON 41
  eH_2 -9.132482e-02 1 1  ON 42
  eH_3 -6.943167e-02 1 1  ON 43
  eH_4 -6.640826e-02 1 1  ON 44
  eH_5 -5.480830e-02 1 1  ON 45
  eH_6 -3.852029e-02 1 1  ON 46
  eH_7 -2.634909e-02 1 1  ON 47
  eH_8 -1.449649e-02 1 1  ON 48
  eH_9 -1.017607e-02 1 1  ON 49
  eO_0 -2.014206e+00 1 1  ON 50
  eO_1 -1.905936e+00 1 1  ON 51
  eO_2 -1.428729e+00 1 1  ON 52
  eO_3 -8.727620e-01 1 1  ON 53
  eO_4 -3.473173e-01 1 1  ON 54
  eO_5  2.126531e-02 1 1  ON 55
  eO_6  1.283099e-01 1 1  ON 56
  eO_7  2.640153e-01 1 1  ON 57
  eO_8  2.965878e-01 1 1  ON 58
  eO_9  2.722538e-01 1 1  ON 59
 uuH_0  4.346843e-03 1 1  ON 60
 uuH_1  9.054597e-03 1 1  ON 61
 uuH_2  1.996833e-03 1 1  ON 62
 uuH_3 -8.657433e-03 1 1  ON 63
 uuH_4 -5.686810e-03 1 1  ON 64
 uuH_5 -8.909401e-04 1 1  ON 65
 uuH_6  1.629899e-02 1 1  ON 66
 uuH_7 -2.513255e-03 1 1  ON 67
 uuH_8  2.272166e-02 1 1  ON 68
 uuH_9 -1.391781e-02 1 1  ON 69
uuH_10 -1.126131e-02 1 1  ON 70
uuH_11 -1.066673e-02 1 1  ON 71
uuH_12 -1.117902e-02 1 1  ON 72
uuH_13  1.571869e-02 1 1  ON 73
uuH_14  1.128907e-02 1 1  ON 74
uuH_15 -1.951473e-04 1 1  ON 75
uuH_16  1.776256e-02 1 1  ON 76
uuH_17  1.740910e-02 1 1  ON 77
uuH_18  2.197202e-02 1 1  ON 78
uuH_19  5.856804e-04 1 1  ON 79
uuH_20 -1.179775e-02 1 1  ON 80
uuH_21 -1.188599e-02 1 1  ON 81
uuH_22  2.947926e-03 1 1  ON 82
uuH_23  4.116871e-03 1 1  ON 83
uuH_24  4.381674e-03 1 1  ON 84
uuH_25 -1.714000e-03 1 1  ON 85
 udH_0 -1.219604e-03 1 1  ON 86
 udH_1  3.312994e-03 1 1  ON 87
 udH_2  1.185711e-02 1 1  ON 88
 udH_3 -3.627036e-03 1 1  ON 89
 udH_4 -7.280598e-03 1 1  ON 90
 udH_5  2.540900e-04 1 1  ON 91
 udH_6  1.657307e-02 1 1  ON 92
 udH_7 -9.387700e-03 1 1  ON 93
 udH_8  2.079984e-02 1 1  ON 94
 udH_9 -1.104576e-02 1 1  ON 95
udH_10 -6.191981e-03 1 1  ON 96
udH_11 -4.997689e-03 1 1  ON 97
udH_12 -1.304089e-02 1 1  ON 98
udH_13  7.478713e-03 1 1  ON 99
udH_14  5.011805e-03 1 1  ON 100
udH_15  1.640050e-03 1 1  ON 101
udH_16  2.822770e-02 1 1  ON 102
udH_17  1.057809e-03 1 1  ON 103
udH_18  5.621539e-03 1 1  ON 104
udH_19  1.027130e-02 1 1  ON 105
udH_20 -1.478768e-02 1 1  ON 106
udH_21 -2.161985e-04 1 1  ON 107
udH_22 -2.512251e-03 1 1  ON 108
udH_23  7.708583e-03 1 1  ON 109
udH_24 -2.064363e-03 1 1  ON 110
udH_25  1.156685e-03 1 1  ON 111
 uuO_0  3.608481e-04 1 1  ON 112
 uuO_1  4.947197e-03 1 1  ON 113
 uuO_2  3.928400e-03 1 1  ON 114
 uuO_3 -9.593170e-03 1 1  ON 115
 uuO_4 -8.687426e-03 1 1  ON 116
 uuO_5  6.758797e-05 1 1  ON 117
 uuO_6  5.945128e-03 1 1  ON 118
 uuO_7 -6.314804e-03 1 1  ON 119
 uuO_8  1.767928e-02 1 1  ON 120
 uuO_9 -5.138302e-04 1 1  ON 121
uuO_10 -1.222222e-02 1 1  ON 122
uuO_11  1.626247e-02 1 1  ON 123
uuO_12 -1.766892e-02 1 1  ON 124
uuO_13  1.358639e-02 1 1  ON 125
uuO_14  1.241181e-02 1 1  ON 126
uuO_15  9.789438e-04 1 1  ON 127
uuO_16 -1.590085e-02 1 1  ON 128
uuO_17  4.537894e-02 1 1  ON 129
uuO_18 -5.403301e-02 1 1  ON 130
uuO_19  2.661908e-02 1 1  ON 131
uuO_20  1.832325e-03 1 1  ON 132
uuO_21  7.433104e-03 1 1  ON 133
uuO_22 -6.034122e-03 1 1  ON 134
uuO_23 -2.365845e-03 1 1  ON 135
uuO_24 -1.690930e-03 1 1  ON 136
uuO_25  1.647155e-03 1 1  ON 137
 udO_0  9.002851e-05 1 1  ON 138
 udO_1 -3.325729e-03 1 1  ON 139
 udO_2  1.169875e-03 1 1  ON 140
 udO_3  1.091021e-04 1 1  ON 141
 udO_4  8.158511e-04 1 1  ON 142
 udO_5  3.863335e-04 1 1  ON 143
 udO_6 -1.251303e-02 1 1  ON 144
 udO_7  4.922168e-03 1 1  ON 145
 udO_8  5.755304e-03 1 1  ON 146
 udO_9  1.322668e-02 1 1  ON 147
udO_10  4.232310e-03 1 1  ON 148
udO_11 -1.691053e-02 1 1  ON 149
udO_12 -3.703958e-03 1 1  ON 150
udO_13 -1.067377e-02 1 1  ON 151
udO_14  2.085872e-03 1 1  ON 152
udO_15  7.660782e-04 1 1  ON 153
udO_16 -1.389278e-02 1 1  ON 154
udO_17 -2.272292e-02 1 1  ON 155
udO_18  4.022069e-02 1 1  ON 156
udO_19 -2.035705e-03 1 1  ON 157
udO_20  1.206498e-02 1 1  ON 158
udO_21 -1.138771e-02 1 1  ON 159
udO_22  1.389294e-03 1 1  ON 160
udO_23 -6.853069e-03 1 1  ON 161
udO_24  5.187127e-03 1 1  ON 162
udO_25 -1.072425e-03 1 1  ON 163
  </optVariables>
   Restore the number of walkers to 8, removing 0 walkers.
</opt>
</optimization-report>
  QMC Execution time = 34.08 secs
  Total Execution time = 408.8 secs

=========================================================
  A new xml input file : H2O_AE_HF.s029.cont.xml
