Discarded 6 diffused primitive functions, 0 contracted functions
#INFO: **** input file is /home/ubuntu/qmcpack_workshop_2019/day2_nexus/pyscf/04_pyscf_diamond_dft_qmc/runs/diamond/scf/scf.py ****
#!/usr/bin/env python

from pyscf.pbc import df, scf


### generated system text ###
from numpy import array
from pyscf.pbc import gto as gto_loc
cell = gto_loc.Cell()
cell.a             = '''
                     3.37316115   3.37316115   0.00000000
                     0.00000000   3.37316115   3.37316115
                     3.37316115   0.00000000   3.37316115
                     '''
cell.basis         = 'bfd-vdz'
cell.dimension     = 3
cell.ecp           = 'bfd'
cell.unit          = 'B'
cell.atom          = '''
                     C    0.00000000   0.00000000   0.00000000
                     C    1.68658057   1.68658057   1.68658057
                     '''
cell.drop_exponent = 0.1
cell.verbose       = 5
cell.charge        = 0
cell.spin          = 0
cell.build()
kpts = array([
    [0.0, 0.0, 0.0],
    [0.4656748546088228, 0.4656748546088228, -0.4656748546088228]])
### end generated system text ###



gdf = df.FFTDF(cell,kpts)
gdf.auxbasis = 'weigend'

mf = scf.KRHF(cell,kpts).density_fit()
mf.exxdiv  = 'ewald'
mf.with_df = gdf
mf.kernel()

### generated conversion text ###
from PyscfToQmcpack import savetoqmcpack
savetoqmcpack(cell,mf,'scf',kpts)
### end generated conversion text ###

#INFO: ******************** input file end ********************


System: ('Linux', 'ip-172-31-2-151', '4.15.0-1032-aws', '#34-Ubuntu SMP Thu Jan 17 15:18:09 UTC 2019', 'x86_64', 'x86_64')  Threads 16
Python 2.7.15rc1 (default, Nov 12 2018, 14:31:15) 
[GCC 7.3.0]
numpy 1.16.3  scipy 0.19.1
Date: Thu May  9 18:13:29 2019
PySCF version 1.6.1
PySCF path  /home/ubuntu/apps/pyscf-1.6.1/pyscf

[CONFIG] conf_file None
[INPUT] verbose = 5
[INPUT] max_memory = 4000 
[INPUT] num. atoms = 2
[INPUT] num. electrons = 8
[INPUT] charge = 0
[INPUT] spin (= nelec alpha-beta = 2S) = 0
[INPUT] symmetry False subgroup None
[INPUT] Mole.unit = B
[INPUT]  1 C      0.000000000000   0.000000000000   0.000000000000 AA    0.000000000000   0.000000000000   0.000000000000 Bohr
[INPUT]  2 C      0.892500002024   0.892500002024   0.892500002024 AA    1.686580570000   1.686580570000   1.686580570000 Bohr
[INPUT] ---------------- BASIS SET ---------------- 
[INPUT] l, kappa, [nprim/nctr], expnt,             c_1 c_2 ...
[INPUT] C
[INPUT] 0    0    [8    /1   ]  13.073594         -0.000705
                                6.541187          0.015176
                                3.272791          -0.121499
                                1.637494          -0.033512
                                0.819297          0.180113
                                0.409924          0.380369
                                0.2051            0.397529
                                0.102619          0.169852
[INPUT] 0    0    [1    /1   ]  0.127852             1
[INPUT] 1    0    [7    /1   ]  7.480076          0.021931
                                3.741035          0.054425
                                1.871016          0.112024
                                0.935757          0.210979
                                0.468003          0.289868
                                0.234064          0.302667
                                0.117063          0.191634
[INPUT] 1    0    [1    /1   ]  0.149161             1
[INPUT] 2    0    [1    /1   ]  0.561161             1

Ewald components = 8.63915484117819e-26, -47.334679725158, 34.5590124922987
nuclear repulsion = -12.7756672328593
number of shells = 10
number of NR pGTOs = 76
number of NR cGTOs = 26
basis = bfd-vdz
ecp = bfd
CPU time:         2.37
lattice vectors  a1 [3.373161150, 3.373161150, 0.000000000]
                 a2 [0.000000000, 3.373161150, 3.373161150]
                 a3 [3.373161150, 0.000000000, 3.373161150]
dimension = 3
low_dim_ft_type = None
Cell volume = 76.7611
exp_to_discard = 0.1
rcut = 19.243077142883383 (nimgs = [5 5 5])
lattice sum = 911 cells
precision = 1e-08
pseudo = None
ke_cutoff = 357.28958447816603
    = [34 34 34] mesh (39304 PWs)
ew_eta = 2.61119
ew_cut = 2.673899610122948 (nimgs = [1 1 1])


******** <class 'pyscf.pbc.scf.khf.KRHF'> ********
method = KRHF-KSCF-SCF
initial guess = minao
damping factor = 0
level shift factor = 0
DIIS = <class 'pyscf.scf.diis.CDIIS'>
DIIS start cycle = 1
DIIS space = 8
SCF tol = 1e-07
SCF gradient tol = None
max. SCF cycles = 50
direct_scf = False
chkfile to save SCF result = /home/ubuntu/qmcpack_workshop_2019/day2_nexus/pyscf/04_pyscf_diamond_dft_qmc/runs/diamond/scf/tmpFW5lLO
max_memory 4000 MB (current use 99 MB)


******** PBC SCF flags ********
N kpts = 2
kpts = [[ 0.          0.          0.        ]
 [ 0.46567485  0.46567485 -0.46567485]]
Exchange divergence treatment (exxdiv) = ewald
Ewald components = 1.16914688656015e-69, -1.47470687199088, 1.24004469635362
    madelung (= occupied orbital energy shift) = 0.46932435127452665
    Total energy shift due to Ewald probe charge = -1/2 * Nelec*madelung = -1.8772974051
DF object = <pyscf.pbc.df.fft.FFTDF object at 0x7f6dffa5afd0>


******** <class 'pyscf.pbc.df.fft.FFTDF'> ********
mesh = [34 34 34] (39304 PWs)
len(kpts) = 2
Set gradient conv threshold to 0.000316228
Big error detected in the electron number of initial guess density matrix (Ne/cell = 9.43899)!
  This can cause huge error in Fock matrix and lead to instability in SCF for low-dimensional systems.
  DM is normalized wrt the number of electrons 8.0
cond(S) = [ 62153.80202325 147620.96759882]
Ewald components = 1.16914688656015e-69, -1.47470687199088, 1.24004469635362
    CPU time for vj and vk     74.89 sec, wall time      6.19 sec
E1 = (3.1817075578016243-2.405523643469769e-24j)  E_coul = (-4.900167387925096+2.9008767478647534e-16j)
Ewald components = 8.63915484117819e-26, -47.334679725158, 34.5590124922987
init E= -14.4941270629828
    CPU time for initialize scf    378.92 sec, wall time     26.97 sec
HOMO = 0.628202624013  LUMO = 0.835074140512
     k-point                  mo_energy
   0 ( 0.000  0.000  0.000)   [-1.85138834  0.58272522  0.62820185  0.62820262] [0.83507414 0.90060046 0.90060122 1.10171937 1.62880265 1.79836166
 1.79836166 2.16048829 2.1774517  2.17745354 2.63505251 2.64039333
 2.64039671 3.45671303 3.61774975 3.6177515  3.61905395 3.64841211
 3.64841211 4.7119897  4.71342571 4.71342606]
   1 ( 0.500 -0.000 -0.000)   [-0.83916539 -0.52059736  0.48905979  0.48906046] [ 0.95570796  1.03362626  1.033627    1.35023876  1.62403537  1.73882809
  1.83776902  1.8377704   2.11253436  2.11253448  2.92117186  3.05311919
  3.05312263  3.09406584  3.094067    3.17772574  3.75197116  3.75197279
  3.79420836  3.79420842  4.05501077 10.73276108]
Ewald components = 1.16914688656015e-69, -1.47470687199088, 1.24004469635362
    CPU time for vj and vk     33.35 sec, wall time      2.17 sec
E1 = (4.378006867485392-3.55610923008942e-24j)  E_coul = (-2.1936058948840045+2.320420898501347e-16j)
Ewald components = 8.63915484117819e-26, -47.334679725158, 34.5590124922987
cycle= 1 E= -10.5912662602579  delta_E=  3.9  |g|= 0.311  |ddm|= 5.55
    CPU time for cycle= 1     33.74 sec, wall time      2.19 sec
HOMO = 0.358932921551  LUMO = 1.01201732847
     k-point                  mo_energy
   0 ( 0.000  0.000  0.000)   [-0.6525113   0.28350751  0.2835083   0.35893292] [1.01201733 1.03356138 1.03356201 1.3415973  1.64280138 1.82193288
 1.82193291 2.22270927 2.23052079 2.23052276 2.71500915 2.71501278
 2.72158883 3.4242434  3.63278755 3.63802097 3.63802267 3.70248602
 3.70248603 4.75859689 4.76356493 4.76356524]
   1 ( 0.500 -0.000 -0.000)   [-0.37108987 -0.25772282  0.1682298   0.16823049] [ 1.13957774  1.16469197  1.16469253  1.39861377  1.70292806  1.80501556
  1.87500073  1.87500224  2.13044142  2.13044153  2.98491625  3.1270561
  3.12705732  3.14275512  3.14275858  3.18933236  3.79604805  3.79604974
  3.81630401  3.81630411  4.08552217 10.93145327]
Ewald components = 1.16914688656015e-69, -1.47470687199088, 1.24004469635362
    CPU time for vj and vk     32.68 sec, wall time      2.14 sec
E1 = (4.402807387379029-3.343053676807329e-24j)  E_coul = (-2.2299460723238465+1.6649458129408296e-16j)
Ewald components = 8.63915484117819e-26, -47.334679725158, 34.5590124922987
cycle= 2 E= -10.6028059178041  delta_E= -0.0115  |g|= 0.0605  |ddm|= 2.27
    CPU time for cycle= 2     33.09 sec, wall time      2.17 sec
HOMO = 0.342608463505  LUMO = 1.01297114245
     k-point                  mo_energy
   0 ( 0.000  0.000  0.000)   [-0.65455063  0.27677471  0.27677551  0.34260846] [1.01297114 1.03258915 1.0325898  1.33996713 1.64403585 1.82048994
 1.82048997 2.22139155 2.22869217 2.22869414 2.70871497 2.7087186
 2.71308126 3.42427008 3.63095979 3.63625745 3.63625915 3.7000946
 3.70009461 4.75636311 4.76084507 4.76084538]
   1 ( 0.500 -0.000 -0.000)   [-0.37565131 -0.26438345  0.16363696  0.16363766] [ 1.13770374  1.16397756  1.16397813  1.40160639  1.69769462  1.7983717
  1.87050747  1.87050897  2.12704826  2.12704837  2.9792968   3.12562903
  3.12563024  3.13731606  3.13731952  3.19036661  3.79352718  3.79352886
  3.81484037  3.81484047  4.08449785 10.91158056]
Ewald components = 1.16914688656015e-69, -1.47470687199088, 1.24004469635362
    CPU time for vj and vk     31.94 sec, wall time      2.10 sec
E1 = (4.40491390162107-3.5155176033503676e-24j)  E_coul = (-2.2326127689470923+2.1202751726329092e-16j)
Ewald components = 8.63915484117819e-26, -47.334679725158, 34.5590124922987
cycle= 3 E= -10.6033661001853  delta_E= -0.00056  |g|= 0.0037  |ddm|= 0.292
    CPU time for cycle= 3     32.76 sec, wall time      2.16 sec
HOMO = 0.344879151168  LUMO = 1.01381020622
     k-point                  mo_energy
   0 ( 0.000  0.000  0.000)   [-0.65358947  0.27830854  0.27830934  0.34487915] [1.01381021 1.03379729 1.03379793 1.3412599  1.64376096 1.82105648
 1.82105652 2.22204707 2.22941073 2.2294127  2.71027662 2.71028025
 2.71497629 3.42381615 3.63152296 3.63665247 3.63665417 3.70107914
 3.70107915 4.75725189 4.76174029 4.76174059]
   1 ( 0.500 -0.000 -0.000)   [-0.37457511 -0.26292734  0.16513638  0.16513708] [ 1.13848189  1.1646939   1.16469447  1.40138349  1.69890299  1.80016192
  1.87168886  1.87169036  2.12786009  2.12786021  2.98081423  3.12619754
  3.12619875  3.13896394  3.1389674   3.19017413  3.79435327  3.79435496
  3.81520636  3.81520647  4.08488154 10.91592493]
Ewald components = 1.16914688656015e-69, -1.47470687199088, 1.24004469635362
    CPU time for vj and vk     32.41 sec, wall time      2.14 sec
E1 = (4.404470217252481-3.255811971577127e-24j)  E_coul = (-2.232170699095245+1.8724531553265633e-16j)
Ewald components = 8.63915484117819e-26, -47.334679725158, 34.5590124922987
cycle= 4 E= -10.6033677147021  delta_E= -1.61e-06  |g|= 0.000512  |ddm|= 0.0461
    CPU time for cycle= 4     32.97 sec, wall time      2.18 sec
HOMO = 0.344774413822  LUMO = 1.01377234212
     k-point                  mo_energy
   0 ( 0.000  0.000  0.000)   [-0.65364283  0.27822887  0.27822967  0.34477441] [1.01377234 1.03375957 1.03376021 1.3411687  1.64378026 1.82103547
 1.82103551 2.22203746 2.22938889 2.22939086 2.71020746 2.71021109
 2.71489382 3.42382744 3.63150262 3.63663448 3.63663618 3.70104443
 3.70104444 4.75722143 4.76170537 4.76170568]
   1 ( 0.500 -0.000 -0.000)   [-0.37462729 -0.26300253  0.16506639  0.16506709] [ 1.13842206  1.16467298  1.16467355  1.40140316  1.69885084  1.80007286
  1.8716352   1.87163671  2.12782978  2.12782989  2.98076967  3.12617285
  3.12617406  3.13889883  3.13890229  3.19018844  3.79432313  3.79432481
  3.81518855  3.81518865  4.08486243 10.91570379]
Ewald components = 1.16914688656015e-69, -1.47470687199088, 1.24004469635362
    CPU time for vj and vk     32.57 sec, wall time      2.14 sec
E1 = (4.404472769671372-3.304683482377379e-24j)  E_coul = (-2.2321733045164964+1.981535735841087e-16j)
Ewald components = 8.63915484117819e-26, -47.334679725158, 34.5590124922987
cycle= 5 E= -10.6033677677044  delta_E= -5.3e-08  |g|= 8.92e-05  |ddm|= 0.00506
    CPU time for cycle= 5     33.29 sec, wall time      2.19 sec
HOMO = 0.344784938587  LUMO = 1.01377298179
     k-point                  mo_energy
   0 ( 0.000  0.000  0.000)   [-0.6536421   0.27823109  0.27823189  0.34478494] [1.01377298 1.03376093 1.03376157 1.34116428 1.64378051 1.82103609
 1.82103613 2.22203577 2.22938943 2.2293914  2.71021007 2.7102137
 2.71489763 3.42382751 3.63150343 3.63663527 3.63663697 3.70104546
 3.70104547 4.75722245 4.76170637 4.76170668]
   1 ( 0.500 -0.000 -0.000)   [-0.3746247  -0.26299297  0.16506865  0.16506936] [ 1.13841688  1.16467233  1.1646729   1.40140047  1.69885119  1.8000741
  1.87163733  1.87163883  2.12783413  2.12783425  2.98077592  3.12617186
  3.12617307  3.13890002  3.13890349  3.19018711  3.79432411  3.7943258
  3.81518822  3.81518832  4.08486101 10.91571008]
Ewald components = 1.16914688656015e-69, -1.47470687199088, 1.24004469635362
    CPU time for vj and vk     32.41 sec, wall time      2.14 sec
E1 = (4.404468430327153-3.293778269223604e-24j)  E_coul = (-2.232168966631128+2.0292158055087366e-16j)
Ewald components = 8.63915484117819e-26, -47.334679725158, 34.5590124922987
Extra cycle  E= -10.6033677691633  delta_E= -1.46e-09  |g|= 2.59e-05  |ddm|= 0.000576
    CPU time for scf_cycle    577.86 sec, wall time     40.03 sec
    CPU time for SCF    578.09 sec, wall time     40.05 sec
converged SCF energy = -10.6033677691633
Using Python 2.x
Wavefunction successfully saved to QMCPACK HDF5 Format
Use: "convert4qmc -pyscf  scf.h5" to generate QMCPACK input files
