  Input file(s): DMC.xml 

=====================================================
                    QMCPACK 3.7.9

       (c) Copyright 2003-  QMCPACK developers

                    Please cite:
 J. Kim et al. J. Phys. Cond. Mat. 30 195901 (2018)
      https://doi.org/10.1088/1361-648X/aab9c3

  Git branch: develop
  Last git commit: f95f17d2abb3cf3304553f3fd54aac3c712a1278
  Last git commit date: Thu May 9 13:52:50 2019 -0500
  Last git commit subject: Merge pull request #1591 from jtkrogel/nexus_workshop2
=====================================================
  Global options 

  Total number of MPI ranks = 256
  Number of MPI groups      = 1
  MPI group ID              = 0
  Number of ranks in group  = 256
  MPI ranks per node        = 1
  OMP 1st level threads     = 32
  OMP nested threading disabled or only 1 thread on the 2nd level

  Precision used in this calculation, see definitions in the manual:
  Base precision      = double
  Full precision      = double

  Structure-of-arrays (SoA) optimization enabled

  Input XML = DMC.xml

  Project = H2O-Tr4
  date    = 2019-05-12 22:38:41 UTC
  host    = Q02-I6-J01.vesta.itd

 Random Number
 -------------
  Offset for the random number seeds based on time: 113

  Range of prime numbers to use as seeds over processors and threads = 631-85331


 Particle Set 
 ------------
  Name: ion0
  All the species have the same mass 1
  Particle set size: 3

 Particle Set 
 ------------
  Name: e
  All the species have the same mass 1
  Particle set size: 10

 Wavefunction setup: 
 ------------------- 
  Name: psi0
  LCAO: SoaAtomicBasisSet<MultiQuintic,0>
Reading BasisSet from HDF5 file:../H2O-Tr4.orbs.h5
<input node="atomicBasisSet" name="Gaussian" expandYlm="Gamess" angular="cartesian" elementType="H" normalized="no" type="Numerical" expM="0" />
  AO BasisSet for H
   Angular momentum expanded in cartesian functions x^lx y^ly z^lz according to Gamess
   Grid is created by the input paremters in h5
    Using log grid ri = 1e-06 rf = 100 npts = 1001
   R(n,l,m,s) 0 0 0 0
   R(n,l,m,s) 1 0 0 0
   R(n,l,m,s) 2 0 0 0
   R(n,l,m,s) 3 1 0 0
   R(n,l,m,s) 4 1 0 0
   R(n,l,m,s) 5 2 0 0
Expanding Ylm (angular function) according to Gamess using cartesian gaussians
Adding 1 cartesian gaussian orbitals for l= 0
Adding 1 cartesian gaussian orbitals for l= 0
Adding 1 cartesian gaussian orbitals for l= 0
Adding 3 cartesian gaussian orbitals for l= 1
Adding 3 cartesian gaussian orbitals for l= 1
Adding 6 cartesian gaussian orbitals for l= 2
  Setting cutoff radius 11.1686

   Maximum Angular Momentum  = 2
   Number of Radial functors = 6
   Basis size                = 15

<input node="atomicBasisSet" name="Gaussian" expandYlm="Gamess" angular="cartesian" elementType="O" normalized="no" type="Numerical" expM="0" />
  AO BasisSet for O
   Angular momentum expanded in cartesian functions x^lx y^ly z^lz according to Gamess
   Grid is created by the input paremters in h5
    Using log grid ri = 1e-06 rf = 100 npts = 1001
   R(n,l,m,s) 0 0 0 0
   R(n,l,m,s) 1 0 0 0
   R(n,l,m,s) 2 0 0 0
   R(n,l,m,s) 3 0 0 0
   R(n,l,m,s) 4 0 0 0
   R(n,l,m,s) 5 0 0 0
   R(n,l,m,s) 6 1 0 0
   R(n,l,m,s) 7 1 0 0
   R(n,l,m,s) 8 1 0 0
   R(n,l,m,s) 9 1 0 0
   R(n,l,m,s) 10 1 0 0
   R(n,l,m,s) 11 2 0 0
   R(n,l,m,s) 12 2 0 0
   R(n,l,m,s) 13 2 0 0
   R(n,l,m,s) 14 3 0 0
Expanding Ylm (angular function) according to Gamess using cartesian gaussians
Adding 1 cartesian gaussian orbitals for l= 0
Adding 1 cartesian gaussian orbitals for l= 0
Adding 1 cartesian gaussian orbitals for l= 0
Adding 1 cartesian gaussian orbitals for l= 0
Adding 1 cartesian gaussian orbitals for l= 0
Adding 1 cartesian gaussian orbitals for l= 0
Adding 3 cartesian gaussian orbitals for l= 1
Adding 3 cartesian gaussian orbitals for l= 1
Adding 3 cartesian gaussian orbitals for l= 1
Adding 3 cartesian gaussian orbitals for l= 1
Adding 3 cartesian gaussian orbitals for l= 1
Adding 6 cartesian gaussian orbitals for l= 2
Adding 6 cartesian gaussian orbitals for l= 2
Adding 6 cartesian gaussian orbitals for l= 2
Adding 10 cartesian gaussian orbitals for l= 3
  Setting cutoff radius 7.72681

   Maximum Angular Momentum  = 3
   Number of Radial functors = 15
   Basis size                = 49

  Created SPOSet builder named 'LCAOBSet' of type molecularorbital
Creating SPOSet in SlaterDetBuilder::put(xmlNodePtr cur).
spo_name = spo-up
  Building SPOSet 'spo-up' with 'LCAOBSet' basis set.
Reading cusp info from : ../CuspCorrection/spo-up.cuspInfo.xml
Found precomputed cusp data for spo set: spo-up
Creating SPOSet in SlaterDetBuilder::put(xmlNodePtr cur).
spo_name = spo-dn
  Building SPOSet 'spo-dn' with 'LCAOBSet' basis set.
Reading cusp info from : ../CuspCorrection/spo-dn.cuspInfo.xml
Found precomputed cusp data for spo set: spo-dn
Using Bryan's algorithm for MultiSlaterDeterminant expansion. 
Creating base determinant (up) for MSD expansion. 
Creating base determinant (down) for MSD expansion. 
Found Multideterminants in H5 File
Found determinant list. 
Reading CI expansion from HDF5:../H2O-Tr4.orbs.h5
 Done reading CIs from H5!!
 Sorting unique CIs
 Done Sorting unique CIs
Found 2602 terms in the MSD expansion.
Norm of ci vector (sum of ci^2): 1
Found 84 unique up determinants.
Found 85 unique down determinants.
Number of terms in pairs array: 77
Number of terms in pairs array: 78
CI coefficients are not optimizable. 
  FermionWF = MultiSlaterDeterminantFast

   Jastrow
   -------
    Name: J2   Type: Two-Body   Function: Bspline

    Radial function for species: u - u
     Number of parameters: 20
     Cusp: -0.25
     Cutoff radius: 10

      Name         Value Type Recompute Use Index
     ----- ------------- ---- --------- --- -----
      uu_0  2.508548e-01    1         1  ON     0
      uu_1  1.649659e-01    1         1  ON     1
      uu_2  8.884205e-02    1         1  ON     2
      uu_3  3.676365e-02    1         1  ON     3
      uu_4 -1.578284e-03    1         1  ON     4
      uu_5 -2.533474e-02    1         1  ON     5
      uu_6 -4.004441e-02    1         1  ON     6
      uu_7 -5.259276e-02    1         1  ON     7
      uu_8 -6.142897e-02    1         1  ON     8
      uu_9 -6.162567e-02    1         1  ON     9
     uu_10 -5.766847e-02    1         1  ON    10
     uu_11 -6.125618e-02    1         1  ON    11
     uu_12 -6.497792e-02    1         1  ON    12
     uu_13 -5.298769e-02    1         1  ON    13
     uu_14 -4.562118e-02    1         1  ON    14
     uu_15 -2.210340e-02    1         1  ON    15
     uu_16 -3.759128e-03    1         1  ON    16
     uu_17 -4.361127e-04    1         1  ON    17
     uu_18 -1.135425e-03    1         1  ON    18
     uu_19  4.293984e-03    1         1  ON    19

    Radial function for species: u - d
     Number of parameters: 20
     Cusp: -0.5
     Cutoff radius: 10

      Name         Value Type Recompute Use Index
     ----- ------------- ---- --------- --- -----
      ud_0  3.301725e-01    1         1  ON     0
      ud_1  1.499608e-01    1         1  ON     1
      ud_2  4.523206e-02    1         1  ON     2
      ud_3 -3.225992e-03    1         1  ON     3
      ud_4 -2.110388e-02    1         1  ON     4
      ud_5 -2.716098e-02    1         1  ON     5
      ud_6 -3.227099e-02    1         1  ON     6
      ud_7 -3.517081e-02    1         1  ON     7
      ud_8 -3.747865e-02    1         1  ON     8
      ud_9 -3.909157e-02    1         1  ON     9
     ud_10 -4.093036e-02    1         1  ON    10
     ud_11 -4.572390e-02    1         1  ON    11
     ud_12 -5.047594e-02    1         1  ON    12
     ud_13 -5.350584e-02    1         1  ON    13
     ud_14 -5.584653e-02    1         1  ON    14
     ud_15 -5.577513e-02    1         1  ON    15
     ud_16 -3.381889e-02    1         1  ON    16
     ud_17 -1.025003e-02    1         1  ON    17
     ud_18  5.823207e-03    1         1  ON    18
     ud_19  1.020203e-02    1         1  ON    19


   Jastrow
   -------
    Name: J1   Type: One-Body   Function: Bspline

    Radial function for element: H
     Number of parameters: 10
     Cusp: 0
     Cutoff radius: 5

     Name         Value Type Recompute Use Index
     ---- ------------- ---- --------- --- -----
     eH_0 -6.516056e-02    1         1  ON     0
     eH_1 -5.995704e-02    1         1  ON     1
     eH_2 -3.524303e-02    1         1  ON     2
     eH_3 -2.291962e-02    1         1  ON     3
     eH_4 -2.807378e-02    1         1  ON     4
     eH_5 -3.076901e-02    1         1  ON     5
     eH_6 -2.048759e-02    1         1  ON     6
     eH_7 -1.509343e-02    1         1  ON     7
     eH_8 -1.063151e-02    1         1  ON     8
     eH_9 -2.986648e-03    1         1  ON     9

    Radial function for element: O
     Number of parameters: 10
     Cusp: 0
     Cutoff radius: 5

     Name         Value Type Recompute Use Index
     ---- ------------- ---- --------- --- -----
     eO_0 -8.169072e-01    1         1  ON     0
     eO_1 -7.020975e-01    1         1  ON     1
     eO_2 -3.999667e-01    1         1  ON     2
     eO_3 -1.680855e-01    1         1  ON     3
     eO_4  6.834255e-04    1         1  ON     4
     eO_5  9.632661e-02    1         1  ON     5
     eO_6  1.672125e-01    1         1  ON     6
     eO_7  2.332453e-01    1         1  ON     7
     eO_8  2.381515e-01    1         1  ON     8
     eO_9  1.854503e-01    1         1  ON     9


   Jastrow
   -------
    Name: J3   Type: eeI   Function: polynomial

     Ion: H   electron-electron: u - u
      Number of parameters for e-e: 3, for e-I: 3
      Cutoff radius: 5

        Name         Value Type Recompute Use Index
      ------ ------------- ---- --------- --- -----
       uuH_0 -1.398260e-03    1         1  ON     0
       uuH_1  7.458418e-03    1         1  ON     1
       uuH_2  1.245440e-02    1         1  ON     2
       uuH_3 -6.041305e-03    1         1  ON     3
       uuH_4 -8.141484e-03    1         1  ON     4
       uuH_5 -4.324825e-04    1         1  ON     5
       uuH_6  2.146091e-02    1         1  ON     6
       uuH_7 -3.068529e-03    1         1  ON     7
       uuH_8  2.398037e-02    1         1  ON     8
       uuH_9 -1.333635e-02    1         1  ON     9
      uuH_10 -9.184658e-03    1         1  ON    10
      uuH_11 -1.007562e-02    1         1  ON    11
      uuH_12 -1.129414e-02    1         1  ON    12
      uuH_13  7.680599e-03    1         1  ON    13
      uuH_14  5.115937e-03    1         1  ON    14
      uuH_15  1.093322e-03    1         1  ON    15
      uuH_16  2.382647e-02    1         1  ON    16
      uuH_17  2.979830e-04    1         1  ON    17
      uuH_18  1.703239e-02    1         1  ON    18
      uuH_19  3.323220e-03    1         1  ON    19
      uuH_20 -8.260813e-03    1         1  ON    20
      uuH_21 -4.906414e-03    1         1  ON    21
      uuH_22  2.559533e-04    1         1  ON    22
      uuH_23  2.394172e-03    1         1  ON    23
      uuH_24  1.157992e-03    1         1  ON    24
      uuH_25 -3.301067e-04    1         1  ON    25

     Ion: H   electron-electron: u - d
      Number of parameters for e-e: 3, for e-I: 3
      Cutoff radius: 5

        Name         Value Type Recompute Use Index
      ------ ------------- ---- --------- --- -----
       udH_0  3.944350e-04    1         1  ON     0
       udH_1  2.883135e-03    1         1  ON     1
       udH_2  2.818031e-04    1         1  ON     2
       udH_3 -2.362009e-03    1         1  ON     3
       udH_4 -1.854660e-03    1         1  ON     4
       udH_5 -7.249505e-04    1         1  ON     5
       udH_6  5.879017e-03    1         1  ON     6
       udH_7 -8.176605e-03    1         1  ON     7
       udH_8 -5.265112e-04    1         1  ON     8
       udH_9 -2.186871e-03    1         1  ON     9
      udH_10 -3.347287e-03    1         1  ON    10
      udH_11  6.233980e-03    1         1  ON    11
      udH_12 -3.548905e-03    1         1  ON    12
      udH_13  5.189132e-04    1         1  ON    13
      udH_14 -4.157833e-04    1         1  ON    14
      udH_15  8.628587e-04    1         1  ON    15
      udH_16  1.333650e-02    1         1  ON    16
      udH_17 -4.285292e-03    1         1  ON    17
      udH_18 -2.915350e-04    1         1  ON    18
      udH_19  6.054415e-03    1         1  ON    19
      udH_20 -6.175063e-03    1         1  ON    20
      udH_21 -7.522930e-04    1         1  ON    21
      udH_22 -1.633807e-03    1         1  ON    22
      udH_23  3.296799e-03    1         1  ON    23
      udH_24  1.166513e-04    1         1  ON    24
      udH_25  5.418808e-04    1         1  ON    25

     Ion: O   electron-electron: u - u
      Number of parameters for e-e: 3, for e-I: 3
      Cutoff radius: 5

        Name         Value Type Recompute Use Index
      ------ ------------- ---- --------- --- -----
       uuO_0  4.346690e-04    1         1  ON     0
       uuO_1  3.188775e-03    1         1  ON     1
       uuO_2  9.229876e-04    1         1  ON     2
       uuO_3 -7.560302e-03    1         1  ON     3
       uuO_4 -5.580561e-03    1         1  ON     4
       uuO_5 -1.076259e-04    1         1  ON     5
       uuO_6  6.354791e-04    1         1  ON     6
       uuO_7 -2.671766e-03    1         1  ON     7
       uuO_8  1.002092e-02    1         1  ON     8
       uuO_9  2.770777e-03    1         1  ON     9
      uuO_10 -8.534344e-03    1         1  ON    10
      uuO_11  1.446482e-02    1         1  ON    11
      uuO_12 -1.250982e-02    1         1  ON    12
      uuO_13  8.692516e-03    1         1  ON    13
      uuO_14  9.731421e-03    1         1  ON    14
      uuO_15  5.693413e-04    1         1  ON    15
      uuO_16 -2.164506e-02    1         1  ON    16
      uuO_17  3.702697e-02    1         1  ON    17
      uuO_18 -4.603669e-02    1         1  ON    18
      uuO_19  2.217618e-02    1         1  ON    19
      uuO_20  5.651423e-03    1         1  ON    20
      uuO_21  5.619891e-03    1         1  ON    21
      uuO_22 -5.184568e-03    1         1  ON    22
      uuO_23 -3.789918e-03    1         1  ON    23
      uuO_24 -1.153799e-03    1         1  ON    24
      uuO_25  1.528088e-03    1         1  ON    25

     Ion: O   electron-electron: u - d
      Number of parameters for e-e: 3, for e-I: 3
      Cutoff radius: 5

        Name         Value Type Recompute Use Index
      ------ ------------- ---- --------- --- -----
       udO_0  2.196171e-03    1         1  ON     0
       udO_1 -4.492730e-03    1         1  ON     1
       udO_2 -1.231194e-02    1         1  ON     2
       udO_3 -3.301617e-04    1         1  ON     3
       udO_4  3.299312e-03    1         1  ON     4
       udO_5 -5.557166e-04    1         1  ON     5
       udO_6 -1.722925e-02    1         1  ON     6
       udO_7  2.460263e-03    1         1  ON     7
       udO_8 -1.925465e-02    1         1  ON     8
       udO_9  1.391087e-02    1         1  ON     9
      udO_10  3.925252e-04    1         1  ON    10
      udO_11  1.110137e-02    1         1  ON    11
      udO_12  6.754672e-03    1         1  ON    12
      udO_13 -8.435809e-03    1         1  ON    13
      udO_14 -5.680710e-03    1         1  ON    14
      udO_15 -2.991069e-05    1         1  ON    15
      udO_16 -1.861889e-02    1         1  ON    16
      udO_17 -9.190343e-03    1         1  ON    17
      udO_18  2.864922e-05    1         1  ON    18
      udO_19 -3.503222e-03    1         1  ON    19
      udO_20  9.685635e-03    1         1  ON    20
      udO_21  3.677335e-04    1         1  ON    21
      udO_22  9.594553e-05    1         1  ON    22
      udO_23 -4.888990e-03    1         1  ON    23
      udO_24 -2.519157e-04    1         1  ON    24
      udO_25  2.749044e-04    1         1  ON    25

  QMCHamiltonian::addOperator Kinetic to H, physical Hamiltonian 
  QMCHamiltonian::addOperator ElecElec to H, physical Hamiltonian 
QMCHamiltonian::addOperatorType added type coulomb named ElecElec
  QMCHamiltonian::addOperator IonIon to H, physical Hamiltonian 
QMCHamiltonian::addOperatorType added type coulomb named IonIon
  QMCHamiltonian::addOperator IonElec to H, physical Hamiltonian 
QMCHamiltonian::addOperatorType added type coulomb named IonElec

  QMCHamiltonian::add2WalkerProperty added
    4 to P::PropertyList 
    0 to P::Collectables 
    starting Index of the observables in P::PropertyList = 9
ParticleSetPool::randomize 
<init source="ion0" target="e">
</init>
  Initialization Execution time = 7.003 secs
=========================================================
 Summary of QMC systems 
=========================================================
ParticleSetPool has: 

  ParticleSet 'e' contains 10 particles :  u(5) d(5)

    u -2.7559499246e-01 -4.1054017106e-01  7.5047645564e-01
    u  5.8899076769e-01  1.9435629338e-02 -1.9887008520e-01
    u  3.7619104171e-01  6.0996496171e-01  3.2442948890e-01
    u -4.9344048328e-01 -4.3005644054e-01 -8.7698128850e-02
    u -7.1532212977e-01  1.4530620094e+00 -9.9602422650e-01
    d  7.0174915685e-01 -5.6647497680e-02  5.2914460372e-02
    d  4.3575092895e-01 -3.8851206201e-01  6.4982025037e-01
    d -1.5351305045e-01  6.8222616913e-01  3.4211632612e-02
    d  3.6899398793e-01  6.2262578037e-01  2.3950008844e-01
    d  5.1087092282e-01 -1.6407039327e+00 -1.3547737905e+00

  Distance table for similar particles (A-A):
    source/target: e
    Using structure-of-arrays (SoA) data layout
    Distance computations use open boundary conditions in 3D.

  Distance table for dissimilar particles (A-B):
    source: ion0  target: e
    Using structure-of-arrays (SoA) data layout
    Distance computations use open boundary conditions in 3D.


  ParticleSet 'ion0' contains 3 particles :  H(2) O(1)

    H  0.0000000000e+00  1.4309006215e+00 -8.8665949765e-01
    H  0.0000000000e+00 -1.4309006215e+00 -8.8665949765e-01
    O  0.0000000000e+00  0.0000000000e+00  2.2166487441e-01

  Distance table for similar particles (A-A):
    source/target: ion0
    Using structure-of-arrays (SoA) data layout
    Distance computations use open boundary conditions in 3D.


  Hamiltonian h0
  Kinetic         Kinetic energy
  ElecElec        CoulombAA source/target e

  IonIon          CoulombAA source/target ion0

  IonElec         CoulombAB source=ion0



=========================================================
  Start VMC
  File Root H2O-Tr4.s000 append = no 
=========================================================
  Adding 32 walkers to 0 existing sets
  Total number of walkers: 8.1920000000e+03
  Total weight: 8.1920000000e+03
  Resetting Properties of the walkers 1 x 13

<vmc function="put">
  qmc_counter=0  my_counter=0
  time step      = 1.0000000000e-01
  blocks         = 50
  steps          = 1
  substeps       = 30
  current        = 0
  target samples = 8.1920000000e+03
  walkers/mpi    = 32

  stepsbetweensamples = 50
<parameter name="blocks" condition="int">50</parameter>
<parameter name="blocks_between_recompute" condition="int">0</parameter>
<parameter name="check_properties" condition="int">100</parameter>
<parameter name="checkproperties" condition="int">100</parameter>
<parameter name="current" condition="int">0</parameter>
<parameter name="dmcwalkersperthread" condition="real">1.0000000000e+00</parameter>
<parameter name="maxcpusecs" condition="real">3.6000000000e+05</parameter>
<parameter name="record_configs" condition="int">0</parameter>
<parameter name="record_walkers" condition="int">50</parameter>
<parameter name="recordconfigs" condition="int">0</parameter>
<parameter name="recordwalkers" condition="int">50</parameter>
<parameter name="rewind" condition="int">0</parameter>
<parameter name="samples" condition="real">8.1920000000e+03</parameter>
<parameter name="samplesperthread" condition="real">1.0000000000e+00</parameter>
<parameter name="steps" condition="int">1</parameter>
<parameter name="stepsbetweensamples" condition="int">50</parameter>
<parameter name="store_configs" condition="int">0</parameter>
<parameter name="storeconfigs" condition="int">0</parameter>
<parameter name="sub_steps" condition="int">30</parameter>
<parameter name="substeps" condition="int">30</parameter>
<parameter name="tau" condition="au">1.0000000000e-01</parameter>
<parameter name="time_step" condition="au">1.0000000000e-01</parameter>
<parameter name="timestep" condition="au">1.0000000000e-01</parameter>
<parameter name="use_drift" condition="string">no</parameter>
<parameter name="usedrift" condition="string">no</parameter>
<parameter name="walkers" condition="int">32</parameter>
<parameter name="warmup_steps" condition="int">10</parameter>
<parameter name="warmupsteps" condition="int">10</parameter>
  DumpConfig==false Nothing (configurations, state) will be saved.
  Walker Samples are dumped every 50 steps.
</vmc>
  Set drift_modifier UNR parameter a = 1.0000000000e+00
  CloneManager::makeClones makes 32 clones for W/Psi/H.
  Cloning methods for both Psi and H are used
===== Memory Usage before cloning =====
Allocated heap: 512.00 MB, avail. heap: 15743.98 MB
Allocated stack: 0.02 MB, avail. stack: 15743.98 MB
==================================================
===== Memory Usage after cloning =====
Allocated heap: 512.00 MB, avail. heap: 15743.98 MB
Allocated stack: 0.02 MB, avail. stack: 15743.98 MB
==================================================
  Initial partition of walkers 0 1 2 3 4 5 6 7 8 9 10 11 12 13 14 15 16 17 18 19 20 21 22 23 24 25 26 27 28 29 30 31 32 

  Using Particle by Particle moves
  Walker moves without drift
  Total Sample Size   =8192
  Walker distribution on root = 0 1 2 3 4 5 6 7 8 9 10 11 12 13 14 15 16 17 18 19 20 21 22 23 24 25 26 27 28 29 30 31 32 
===== Memory Usage after the buffer registration =====
Allocated heap: 512.00 MB, avail. heap: 15743.98 MB
Allocated stack: 0.02 MB, avail. stack: 15743.98 MB
==================================================
  Anonymous Buffer size per walker : 59592 Bytes.
MEMORY increase 1 MB VMC::resetRun
====================================================
  SimpleFixedNodeBranch::finalize after a VMC block
    QMC counter        = 0
    time step          = 0.1
    reference energy   = -76.3889
    reference variance = 1.95942
====================================================
  QMC Execution time = 5.6276e+00 secs

=========================================================
  Start DMC
  File Root H2O-Tr4.s001 append = no 
=========================================================
Using existing walkers 
  Resetting Properties of the walkers 1 x 13
  Set drift_modifier UNR parameter a = 1.0000e+00
  EstimatorManagerBase::add replace LocalEnergy estimator.
  Cannot make clones again. Use existing 32 clones
  Total number of walkers: 8.1920e+03
  Total weight: 8.1920e+03
  Creating WalkerController: target  number of walkers = 16000
  Using WalkerControlMPI for dynamic population control.
  START ALL OVER 
  WalkerControlBase parameters 
    maxCopy = 2
    Max Walkers per MPI rank 125
    Min Walkers per MPI rank 13
    Using non-blocking send/recv
  QMC counter      = 1
  time step        = 1.0000e-03
  effective time step = 1.0000e-03
  trial energy     = -7.6389e+01
  reference energy = -7.6389e+01
  Feedback = 1.0000e+00
  reference variance = 1.9594e+00
  target walkers = 16000
  branching cutoff scheme classic
  branch cutoff = 5.0000e+01 7.5000e+01
  Max and minimum walkers per node= 125 13
  QMC Status (BranchMode) = 0000001101
  Total number of walkers: 1.6384e+04
  Total weight: 1.6384e+04
  Initial partition of walkers on a node: 0 2 4 6 8 10 12 14 16 18 20 22 24 26 28 30 32 34 36 38 40 42 44 46 48 50 52 54 56 58 60 62 64 
  Updates by particle-by-particle moves
  DMC moves are rejected when a node crossing is detected
===== Memory Usage after the buffer registration =====
Allocated heap: 512.00 MB, avail. heap: 15743.98 MB
Allocated stack: 0.02 MB, avail. stack: 15743.98 MB
==================================================
SimpleFixedNodeBranch::checkParameters 
  Average Energy of a population  = -76.3889
  Energy Variance = 1.95942

  Fluctuating population
  Persistent walkers are killed after 1 MC sweeps
  BranchInterval = 1
  Steps per block = 20
  Number of blocks = 200

  DMC Engine Initialization = 5.1640e-02 secs

 Warmup is completed after 100

  TauEff     = 9.9462e-04
 TauEff/Tau = 9.9462e-01
  Etrial     = -7.6347e+01
 Running average of energy = -7.6409e+01
                  Variance = 2.2982e+00
branch cutoff = 2.2982e+01 3.4473e+01
====================================================
  SimpleFixedNodeBranch::finalize after a DMC block
    QMC counter                   = 1
    time step                     = 0.001
    effective time step           = 0.000994592
    trial energy                  = -76.4264
    reference energy              = -76.4232
    reference variance            = 2.29818
    target walkers                = 16000
    branch cutoff                 = 22.9818 34.4726
    Max and minimum walkers per node= 125 13
    Feedback                      = 1
    QMC Status (BranchMode)       = 0000001111
====================================================
  QMC Execution time = 1.1469e+02 secs
  Total Execution time = 1.2036e+02 secs

=========================================================
  A new xml input file : H2O-Tr4.s001.cont.xml
