  Input file(s): Opt.xml 

=====================================================
                    QMCPACK 3.7.9

       (c) Copyright 2003-  QMCPACK developers

                    Please cite:
 J. Kim et al. J. Phys. Cond. Mat. 30 195901 (2018)
      https://doi.org/10.1088/1361-648X/aab9c3

  Git branch: develop
  Last git commit: f95f17d2abb3cf3304553f3fd54aac3c712a1278
  Last git commit date: Thu May 9 13:52:50 2019 -0500
  Last git commit subject: Merge pull request #1591 from jtkrogel/nexus_workshop2
=====================================================
  Global options 

  Total number of MPI ranks = 1
  Number of MPI groups      = 1
  MPI group ID              = 0
  Number of ranks in group  = 1
  MPI ranks per node        = 1
  OMP 1st level threads     = 8
  OMP nested threading disabled or only 1 thread on the 2nd level

  Precision used in this calculation, see definitions in the manual:
  Base precision      = double
  Full precision      = double

  Structure-of-arrays (SoA) optimization enabled

  Input XML = Opt.xml

  Project = H2O_DFT_BFD
  date    = 2019-05-12 01:25:13 CDT
  host    = abenali

 Random Number
 -------------
  Offset for the random number seeds based on time: 73

  Range of prime numbers to use as seeds over processors and threads = 379-431


 Particle Set 
 ------------
  Name: ion0
  All the species have the same mass 1
  Particle set size: 3

 Particle Set 
 ------------
  Name: e
  All the species have the same mass 1
  Particle set size: 8

 Wavefunction setup: 
 ------------------- 
  Name: psi0
  LCAO: SoaAtomicBasisSet<MultiQuintic,1>
Reading BasisSet from HDF5 file:../H2O_DFT_BFD.h5
<input node="atomicBasisSet" name="bfd_vtz" expandYlm="pyscf" angular="spherical" elementType="H" normalized="no" type="Numerical" expM="0" />
  AO BasisSet for H
   Spherical Harmonics contain (-1)^m factor
   Angular momentum m expanded as -l, ... ,l, with the exception of L=1 (1,-1,0)
   Grid is created by the input paremters in h5
    Using log grid ri = 1e-06 rf = 100 npts = 1001
   R(n,l,m,s) 0 0 0 0
   R(n,l,m,s) 1 0 0 0
   R(n,l,m,s) 2 1 0 0
   R(n,l,m,s) 3 1 0 0
   R(n,l,m,s) 4 2 0 0
Expanding Ylm as L=1 as (1,-1,0) and L>1 as -l,-l+1,...,l-1,l
   Adding 1 spherical orbitals
   Adding 1 spherical orbitals
   Adding 3 spherical orbitals
   Adding 3 spherical orbitals
   Adding 5 spherical orbitals
  Setting cutoff radius 36.3078

   Maximum Angular Momentum  = 2
   Number of Radial functors = 5
   Basis size                = 13

<input node="atomicBasisSet" name="bfd_vtz" expandYlm="pyscf" angular="spherical" elementType="O" normalized="no" type="Numerical" expM="0" />
  AO BasisSet for O
   Spherical Harmonics contain (-1)^m factor
   Angular momentum m expanded as -l, ... ,l, with the exception of L=1 (1,-1,0)
   Grid is created by the input paremters in h5
    Using log grid ri = 1e-06 rf = 100 npts = 1001
   R(n,l,m,s) 0 0 0 0
   R(n,l,m,s) 1 0 0 0
   R(n,l,m,s) 2 0 0 0
   R(n,l,m,s) 3 1 0 0
   R(n,l,m,s) 4 1 0 0
   R(n,l,m,s) 5 1 0 0
   R(n,l,m,s) 6 2 0 0
   R(n,l,m,s) 7 2 0 0
   R(n,l,m,s) 8 3 0 0
Expanding Ylm as L=1 as (1,-1,0) and L>1 as -l,-l+1,...,l-1,l
   Adding 1 spherical orbitals
   Adding 1 spherical orbitals
   Adding 1 spherical orbitals
   Adding 3 spherical orbitals
   Adding 3 spherical orbitals
   Adding 3 spherical orbitals
   Adding 5 spherical orbitals
   Adding 5 spherical orbitals
   Adding 7 spherical orbitals
  Setting cutoff radius 10.1859

   Maximum Angular Momentum  = 3
   Number of Radial functors = 9
   Basis size                = 29

  Created SPOSet builder named 'LCAOBSet' of type molecularorbital
Reuse SPOSetBuilder "LCAOBSet" type MolecularOrbital
  Building SPOSet '' with '' basis set.
Reuse SPOSetBuilder "LCAOBSet" type MolecularOrbital
  Building SPOSet '' with '' basis set.
  Creating a determinant updet group=0 sposet=updet
  Reusing a SPO set updet
Using DiracDeterminant with DelayedUpdate engine
Using rank-1 Sherman-Morrison Fahy update

  Creating a determinant downdet group=1 sposet=downdet
  Reusing a SPO set downdet
Using DiracDeterminant with DelayedUpdate engine
Using rank-1 Sherman-Morrison Fahy update

  FermionWF = SlaterDet

   Jastrow
   -------
    Name: J2   Type: Two-Body   Function: Bspline

    Radial function for species: u - u
     Number of parameters: 20
     Cusp: -0.25
     Cutoff radius: 10

      Name         Value Type Recompute Use Index
     ----- ------------- ---- --------- --- -----
      uu_0  2.625803e-01    1         1  ON     0
      uu_1  1.559494e-01    1         1  ON     1
      uu_2  7.283337e-02    1         1  ON     2
      uu_3  1.056972e-02    1         1  ON     3
      uu_4 -3.725400e-02    1         1  ON     4
      uu_5 -7.167481e-02    1         1  ON     5
      uu_6 -9.406756e-02    1         1  ON     6
      uu_7 -1.058280e-01    1         1  ON     7
      uu_8 -1.095044e-01    1         1  ON     8
      uu_9 -1.082450e-01    1         1  ON     9
     uu_10 -9.878551e-02    1         1  ON    10
     uu_11 -8.768249e-02    1         1  ON    11
     uu_12 -6.517727e-02    1         1  ON    12
     uu_13 -2.692731e-02    1         1  ON    13
     uu_14  1.755507e-02    1         1  ON    14
     uu_15  4.557136e-02    1         1  ON    15
     uu_16  8.111485e-02    1         1  ON    16
     uu_17  8.627806e-02    1         1  ON    17
     uu_18  4.149818e-02    1         1  ON    18
     uu_19  2.097721e-02    1         1  ON    19

    Radial function for species: u - d
     Number of parameters: 20
     Cusp: -0.5
     Cutoff radius: 10

      Name         Value Type Recompute Use Index
     ----- ------------- ---- --------- --- -----
      ud_0  4.785135e-01    1         1  ON     0
      ud_1  2.878501e-01    1         1  ON     1
      ud_2  1.576405e-01    1         1  ON     2
      ud_3  6.493207e-02    1         1  ON     3
      ud_4 -1.233485e-03    1         1  ON     4
      ud_5 -5.066467e-02    1         1  ON     5
      ud_6 -8.620173e-02    1         1  ON     6
      ud_7 -1.129603e-01    1         1  ON     7
      ud_8 -1.323350e-01    1         1  ON     8
      ud_9 -1.403402e-01    1         1  ON     9
     ud_10 -1.425861e-01    1         1  ON    10
     ud_11 -1.347205e-01    1         1  ON    11
     ud_12 -1.290432e-01    1         1  ON    12
     ud_13 -8.811373e-02    1         1  ON    13
     ud_14 -4.619053e-02    1         1  ON    14
     ud_15 -1.721593e-02    1         1  ON    15
     ud_16  3.414198e-02    1         1  ON    16
     ud_17  2.980934e-02    1         1  ON    17
     ud_18  2.434649e-02    1         1  ON    18
     ud_19  1.408300e-02    1         1  ON    19


   Jastrow
   -------
    Name: J1   Type: One-Body   Function: Bspline

    Radial function for element: H
     Number of parameters: 10
     Cusp: 0
     Cutoff radius: 5

     Name         Value Type Recompute Use Index
     ---- ------------- ---- --------- --- -----
     eH_0 -3.003649e-01    1         1  ON     0
     eH_1 -9.646493e-02    1         1  ON     1
     eH_2 -1.360396e-01    1         1  ON     2
     eH_3 -1.125124e-01    1         1  ON     3
     eH_4 -9.073565e-02    1         1  ON     4
     eH_5 -7.142535e-02    1         1  ON     5
     eH_6 -5.119455e-02    1         1  ON     6
     eH_7 -3.422654e-02    1         1  ON     7
     eH_8 -1.950219e-02    1         1  ON     8
     eH_9 -6.875203e-03    1         1  ON     9

    Radial function for element: O
     Number of parameters: 10
     Cusp: 0
     Cutoff radius: 10

     Name         Value Type Recompute Use Index
     ---- ------------- ---- --------- --- -----
     eO_0 -8.826869e-01    1         1  ON     0
     eO_1 -5.568635e-01    1         1  ON     1
     eO_2 -5.140897e-02    1         1  ON     2
     eO_3  2.786960e-01    1         1  ON     3
     eO_4  4.122801e-01    1         1  ON     4
     eO_5  4.204264e-01    1         1  ON     5
     eO_6  3.747938e-01    1         1  ON     6
     eO_7  3.710868e-02    1         1  ON     7
     eO_8 -2.955396e-02    1         1  ON     8
     eO_9 -1.920622e-03    1         1  ON     9


   Jastrow
   -------
    Name: J3   Type: eeI   Function: polynomial

     Ion: H   electron-electron: u - u
      Number of parameters for e-e: 3, for e-I: 3
      Cutoff radius: 5

Expected 26 parameters, but found 0 in PolynomialFunctor3D.
        Name         Value Type Recompute Use Index
      ------ ------------- ---- --------- --- -----
       uuH_0  0.000000e+00    1         1  ON     0
       uuH_1  0.000000e+00    1         1  ON     1
       uuH_2  0.000000e+00    1         1  ON     2
       uuH_3  0.000000e+00    1         1  ON     3
       uuH_4  0.000000e+00    1         1  ON     4
       uuH_5  0.000000e+00    1         1  ON     5
       uuH_6  0.000000e+00    1         1  ON     6
       uuH_7  0.000000e+00    1         1  ON     7
       uuH_8  0.000000e+00    1         1  ON     8
       uuH_9  0.000000e+00    1         1  ON     9
      uuH_10  0.000000e+00    1         1  ON    10
      uuH_11  0.000000e+00    1         1  ON    11
      uuH_12  0.000000e+00    1         1  ON    12
      uuH_13  0.000000e+00    1         1  ON    13
      uuH_14  0.000000e+00    1         1  ON    14
      uuH_15  0.000000e+00    1         1  ON    15
      uuH_16  0.000000e+00    1         1  ON    16
      uuH_17  0.000000e+00    1         1  ON    17
      uuH_18  0.000000e+00    1         1  ON    18
      uuH_19  0.000000e+00    1         1  ON    19
      uuH_20  0.000000e+00    1         1  ON    20
      uuH_21  0.000000e+00    1         1  ON    21
      uuH_22  0.000000e+00    1         1  ON    22
      uuH_23  0.000000e+00    1         1  ON    23
      uuH_24  0.000000e+00    1         1  ON    24
      uuH_25  0.000000e+00    1         1  ON    25

     Ion: H   electron-electron: u - d
      Number of parameters for e-e: 3, for e-I: 3
      Cutoff radius: 5

Expected 26 parameters, but found 0 in PolynomialFunctor3D.
        Name         Value Type Recompute Use Index
      ------ ------------- ---- --------- --- -----
       udH_0  0.000000e+00    1         1  ON     0
       udH_1  0.000000e+00    1         1  ON     1
       udH_2  0.000000e+00    1         1  ON     2
       udH_3  0.000000e+00    1         1  ON     3
       udH_4  0.000000e+00    1         1  ON     4
       udH_5  0.000000e+00    1         1  ON     5
       udH_6  0.000000e+00    1         1  ON     6
       udH_7  0.000000e+00    1         1  ON     7
       udH_8  0.000000e+00    1         1  ON     8
       udH_9  0.000000e+00    1         1  ON     9
      udH_10  0.000000e+00    1         1  ON    10
      udH_11  0.000000e+00    1         1  ON    11
      udH_12  0.000000e+00    1         1  ON    12
      udH_13  0.000000e+00    1         1  ON    13
      udH_14  0.000000e+00    1         1  ON    14
      udH_15  0.000000e+00    1         1  ON    15
      udH_16  0.000000e+00    1         1  ON    16
      udH_17  0.000000e+00    1         1  ON    17
      udH_18  0.000000e+00    1         1  ON    18
      udH_19  0.000000e+00    1         1  ON    19
      udH_20  0.000000e+00    1         1  ON    20
      udH_21  0.000000e+00    1         1  ON    21
      udH_22  0.000000e+00    1         1  ON    22
      udH_23  0.000000e+00    1         1  ON    23
      udH_24  0.000000e+00    1         1  ON    24
      udH_25  0.000000e+00    1         1  ON    25

     Ion: O   electron-electron: u - u
      Number of parameters for e-e: 3, for e-I: 3
      Cutoff radius: 5

Expected 26 parameters, but found 0 in PolynomialFunctor3D.
        Name         Value Type Recompute Use Index
      ------ ------------- ---- --------- --- -----
       uuO_0  0.000000e+00    1         1  ON     0
       uuO_1  0.000000e+00    1         1  ON     1
       uuO_2  0.000000e+00    1         1  ON     2
       uuO_3  0.000000e+00    1         1  ON     3
       uuO_4  0.000000e+00    1         1  ON     4
       uuO_5  0.000000e+00    1         1  ON     5
       uuO_6  0.000000e+00    1         1  ON     6
       uuO_7  0.000000e+00    1         1  ON     7
       uuO_8  0.000000e+00    1         1  ON     8
       uuO_9  0.000000e+00    1         1  ON     9
      uuO_10  0.000000e+00    1         1  ON    10
      uuO_11  0.000000e+00    1         1  ON    11
      uuO_12  0.000000e+00    1         1  ON    12
      uuO_13  0.000000e+00    1         1  ON    13
      uuO_14  0.000000e+00    1         1  ON    14
      uuO_15  0.000000e+00    1         1  ON    15
      uuO_16  0.000000e+00    1         1  ON    16
      uuO_17  0.000000e+00    1         1  ON    17
      uuO_18  0.000000e+00    1         1  ON    18
      uuO_19  0.000000e+00    1         1  ON    19
      uuO_20  0.000000e+00    1         1  ON    20
      uuO_21  0.000000e+00    1         1  ON    21
      uuO_22  0.000000e+00    1         1  ON    22
      uuO_23  0.000000e+00    1         1  ON    23
      uuO_24  0.000000e+00    1         1  ON    24
      uuO_25  0.000000e+00    1         1  ON    25

     Ion: O   electron-electron: u - d
      Number of parameters for e-e: 3, for e-I: 3
      Cutoff radius: 5

Expected 26 parameters, but found 0 in PolynomialFunctor3D.
        Name         Value Type Recompute Use Index
      ------ ------------- ---- --------- --- -----
       udO_0  0.000000e+00    1         1  ON     0
       udO_1  0.000000e+00    1         1  ON     1
       udO_2  0.000000e+00    1         1  ON     2
       udO_3  0.000000e+00    1         1  ON     3
       udO_4  0.000000e+00    1         1  ON     4
       udO_5  0.000000e+00    1         1  ON     5
       udO_6  0.000000e+00    1         1  ON     6
       udO_7  0.000000e+00    1         1  ON     7
       udO_8  0.000000e+00    1         1  ON     8
       udO_9  0.000000e+00    1         1  ON     9
      udO_10  0.000000e+00    1         1  ON    10
      udO_11  0.000000e+00    1         1  ON    11
      udO_12  0.000000e+00    1         1  ON    12
      udO_13  0.000000e+00    1         1  ON    13
      udO_14  0.000000e+00    1         1  ON    14
      udO_15  0.000000e+00    1         1  ON    15
      udO_16  0.000000e+00    1         1  ON    16
      udO_17  0.000000e+00    1         1  ON    17
      udO_18  0.000000e+00    1         1  ON    18
      udO_19  0.000000e+00    1         1  ON    19
      udO_20  0.000000e+00    1         1  ON    20
      udO_21  0.000000e+00    1         1  ON    21
      udO_22  0.000000e+00    1         1  ON    22
      udO_23  0.000000e+00    1         1  ON    23
      udO_24  0.000000e+00    1         1  ON    24
      udO_25  0.000000e+00    1         1  ON    25

  QMCHamiltonian::addOperator Kinetic to H, physical Hamiltonian 
  QMCHamiltonian::addOperator ElecElec to H, physical Hamiltonian 
QMCHamiltonian::addOperatorType added type coulomb named ElecElec
  QMCHamiltonian::addOperator IonIon to H, physical Hamiltonian 
QMCHamiltonian::addOperatorType added type coulomb named IonIon

  ECPotential builder for pseudopotential 

  Adding pseudopotential for H
   Linear grid  ri=0 rf=10 npts = 10001
    ECPComponentBuilder::buildSemiLocalAndLocal 
    Assuming Hartree unit
   Number of angular momentum channels 2
   Maximum angular momentum channel 1
   Creating a Linear Grid Rmax=1e-10
  Using global grid with delta = 0.001
   Making L=1 a local potential with a radial cutoff of 9.999
    Non-local pseudopotential parameters
    Maximum angular mementum = 0
    Number of non-local channels = 1
       l(0)=0
    Cutoff radius = 0.001
    Spherical grids and weights: 
                        1                 0                 0       0.08333333333
                       -1   1.224646799e-16                 0       0.08333333333
             0.4472135955       0.894427191                 0       0.08333333333
            -0.4472135955      0.7236067977      0.5257311121       0.08333333333
             0.4472135955      0.2763932023      0.8506508084       0.08333333333
            -0.4472135955     -0.2763932023      0.8506508084       0.08333333333
             0.4472135955     -0.7236067977      0.5257311121       0.08333333333
            -0.4472135955      -0.894427191   1.095357397e-16       0.08333333333
             0.4472135955     -0.7236067977     -0.5257311121       0.08333333333
            -0.4472135955     -0.2763932023     -0.8506508084       0.08333333333
             0.4472135955      0.2763932023     -0.8506508084       0.08333333333
            -0.4472135955      0.7236067977     -0.5257311121       0.08333333333
    Maximum cutoff radius 0.001

  Adding pseudopotential for O
   Linear grid  ri=0 rf=10 npts = 10001
    ECPComponentBuilder::buildSemiLocalAndLocal 
    Assuming Hartree unit
   Number of angular momentum channels 2
   Maximum angular momentum channel 1
   Creating a Linear Grid Rmax=1.31
  Using global grid with delta = 0.001
   Making L=1 a local potential with a radial cutoff of 9.999
    Non-local pseudopotential parameters
    Maximum angular mementum = 0
    Number of non-local channels = 1
       l(0)=0
    Cutoff radius = 1.31
    Spherical grids and weights: 
                        1                 0                 0       0.08333333333
                       -1   1.224646799e-16                 0       0.08333333333
             0.4472135955       0.894427191                 0       0.08333333333
            -0.4472135955      0.7236067977      0.5257311121       0.08333333333
             0.4472135955      0.2763932023      0.8506508084       0.08333333333
            -0.4472135955     -0.2763932023      0.8506508084       0.08333333333
             0.4472135955     -0.7236067977      0.5257311121       0.08333333333
            -0.4472135955      -0.894427191   1.095357397e-16       0.08333333333
             0.4472135955     -0.7236067977     -0.5257311121       0.08333333333
            -0.4472135955     -0.2763932023     -0.8506508084       0.08333333333
             0.4472135955      0.2763932023     -0.8506508084       0.08333333333
            -0.4472135955      0.7236067977     -0.5257311121       0.08333333333
    Maximum cutoff radius 1.31
  QMCHamiltonian::addOperator LocalECP to H, physical Hamiltonian 

  Using NonLocalECP potential 
    Maximum grid on a sphere for NonLocalECPotential: 12
  QMCHamiltonian::addOperator NonLocalECP to H, physical Hamiltonian 
QMCHamiltonian::addOperatorType added type pseudo named PseudoPot

  QMCHamiltonian::add2WalkerProperty added
    5 to P::PropertyList 
    0 to P::Collectables 
    starting Index of the observables in P::PropertyList = 9
ParticleSetPool::randomize 
<init source="ion0" target="e">
</init>
  Initialization Execution time = 0.06494 secs
=========================================================
 Summary of QMC systems 
=========================================================
ParticleSetPool has: 

  ParticleSet 'e' contains 8 particles :  u(4) d(4)

    u -4.4261134295e-01  2.9387747407e-01  7.1346640927e-01
    u -2.6394349653e-01 -6.7395055608e-01  2.0547849221e-01
    u -2.7916441956e-01 -6.6255578715e-01  1.3666736779e-01
    u -6.3423501255e-02  2.1519235368e+00 -9.0218159419e-01
    d  3.3748427805e-01 -2.6115238443e-01  8.0650785722e-01
    d  6.3688097869e-01 -3.4426503838e-01  2.2297739369e-01
    d -6.3087631889e-01  3.3619228673e-01  1.0717759574e-01
    d  5.0590411200e-01 -1.0610087146e+00 -5.2419773827e-01

  Distance table for similar particles (A-A):
    source/target: e
    Using structure-of-arrays (SoA) data layout
    Distance computations use open boundary conditions in 3D.

  Distance table for dissimilar particles (A-B):
    source: ion0  target: e
    Using structure-of-arrays (SoA) data layout
    Distance computations use open boundary conditions in 3D.


  ParticleSet 'ion0' contains 3 particles :  H(2) O(1)

    H  0.0000000000e+00  1.4309006215e+00 -8.8665949765e-01
    H  0.0000000000e+00 -1.4309006215e+00 -8.8665949765e-01
    O  0.0000000000e+00  0.0000000000e+00  2.2166487441e-01

  Distance table for similar particles (A-A):
    source/target: ion0
    Using structure-of-arrays (SoA) data layout
    Distance computations use open boundary conditions in 3D.


  Hamiltonian h0
  Kinetic         Kinetic energy
  ElecElec        CoulombAA source/target e

  IonIon          CoulombAA source/target ion0

  LocalECP        LocalECPotential: ion0
  NonLocalECP     NonLocalECPotential: ion0


=========================================================
  Start VMC
  File Root H2O_DFT_BFD.s015 append = no 
=========================================================
  Adding 8 walkers to 0 existing sets
  Total number of walkers: 8.0000000000e+00
  Total weight: 8.0000000000e+00
  Resetting Properties of the walkers 1 x 14

<vmc function="put">
  qmc_counter=0  my_counter=0
  time step      = 5.0000000000e-01
  blocks         = 10
  steps          = 1
  substeps       = 5
  current        = 0
  target samples = 8.0000000000e+00
  walkers/mpi    = 8

  stepsbetweensamples = 10
<parameter name="blocks" condition="int">10</parameter>
<parameter name="blocks_between_recompute" condition="int">0</parameter>
<parameter name="check_properties" condition="int">100</parameter>
<parameter name="checkproperties" condition="int">100</parameter>
<parameter name="current" condition="int">0</parameter>
<parameter name="dmcwalkersperthread" condition="real">1.0000000000e+00</parameter>
<parameter name="maxcpusecs" condition="real">3.6000000000e+05</parameter>
<parameter name="record_configs" condition="int">0</parameter>
<parameter name="record_walkers" condition="int">10</parameter>
<parameter name="recordconfigs" condition="int">0</parameter>
<parameter name="recordwalkers" condition="int">10</parameter>
<parameter name="rewind" condition="int">0</parameter>
<parameter name="samples" condition="real">8.0000000000e+00</parameter>
<parameter name="samplesperthread" condition="real">1.0000000000e+00</parameter>
<parameter name="steps" condition="int">1</parameter>
<parameter name="stepsbetweensamples" condition="int">10</parameter>
<parameter name="store_configs" condition="int">0</parameter>
<parameter name="storeconfigs" condition="int">0</parameter>
<parameter name="sub_steps" condition="int">5</parameter>
<parameter name="substeps" condition="int">5</parameter>
<parameter name="tau" condition="au">5.0000000000e-01</parameter>
<parameter name="time_step" condition="au">5.0000000000e-01</parameter>
<parameter name="timestep" condition="au">5.0000000000e-01</parameter>
<parameter name="use_drift" condition="string">no</parameter>
<parameter name="usedrift" condition="string">no</parameter>
<parameter name="walkers" condition="int">8</parameter>
<parameter name="warmup_steps" condition="int">20</parameter>
<parameter name="warmupsteps" condition="int">20</parameter>
  DumpConfig==false Nothing (configurations, state) will be saved.
  Walker Samples are dumped every 10 steps.
</vmc>
  Set drift_modifier UNR parameter a = 1.0000000000e+00
  CloneManager::makeClones makes 8 clones for W/Psi/H.
  Cloning methods for both Psi and H are used
===== Memory Usage before cloning =====
Available memory on node 0, free + buffers : 17164 MB
Memory footprint by rank 0 on node 0       : 47 MB
==================================================
===== Memory Usage after cloning =====
Available memory on node 0, free + buffers : 17159 MB
Memory footprint by rank 0 on node 0       : 53 MB
==================================================
  Initial partition of walkers 0 1 2 3 4 5 6 7 8 

  Using Particle by Particle moves
  Walker moves without drift
  Total Sample Size   =8
  Walker distribution on root = 0 1 2 3 4 5 6 7 8 
  Using Locality Approximation
===== Memory Usage after the buffer registration =====
Available memory on node 0, free + buffers : 17158 MB
Memory footprint by rank 0 on node 0       : 55 MB
==================================================
  Anonymous Buffer size per walker : 2912 Bytes.
MEMORY increase 0 MB VMC::resetRun
====================================================
  SimpleFixedNodeBranch::finalize after a VMC block
    QMC counter        = 0
    time step          = 0.5
    reference energy   = -17.3974
    reference variance = 0.703974
====================================================
  QMC Execution time = 6.1968e-02 secs
Loop execution max-interations = 4

=========================================================
  Start QMCFixedSampleLinearOptimize
  File Root H2O_DFT_BFD.s016 append = no 
=========================================================
  Skip QMCDriver::putQMCInfo 
  Resetting Properties of the walkers 1 x 14

=========================================================
  Start VMC
  File Root H2O_DFT_BFD.s016 append = no 
=========================================================
  Using the current 8 walkers.
  Total number of walkers: 8.0000e+00
  Total weight: 8.0000e+00
  Resetting Properties of the walkers 1 x 14

<vmc function="put">
  qmc_counter=0  my_counter=0
  time step      = 5.0000e-01
  blocks         = 30
  steps          = 334
  substeps       = 5
  current        = 0
  target samples = 8.0000e+04
  walkers/mpi    = 8

  stepsbetweensamples = 1
<parameter name="blocks" condition="int">30</parameter>
<parameter name="blocks_between_recompute" condition="int">0</parameter>
<parameter name="check_properties" condition="int">100</parameter>
<parameter name="checkproperties" condition="int">100</parameter>
<parameter name="current" condition="int">0</parameter>
<parameter name="dmcwalkersperthread" condition="real">1.0000e+04</parameter>
<parameter name="maxcpusecs" condition="real">3.6000e+05</parameter>
<parameter name="record_configs" condition="int">0</parameter>
<parameter name="record_walkers" condition="int">1</parameter>
<parameter name="recordconfigs" condition="int">0</parameter>
<parameter name="recordwalkers" condition="int">1</parameter>
<parameter name="rewind" condition="int">0</parameter>
<parameter name="samples" condition="real">8.0000e+04</parameter>
<parameter name="samplesperthread" condition="real">1.0000e+04</parameter>
<parameter name="steps" condition="int">334</parameter>
<parameter name="stepsbetweensamples" condition="int">1</parameter>
<parameter name="store_configs" condition="int">0</parameter>
<parameter name="storeconfigs" condition="int">0</parameter>
<parameter name="sub_steps" condition="int">5</parameter>
<parameter name="substeps" condition="int">5</parameter>
<parameter name="tau" condition="au">5.0000e-01</parameter>
<parameter name="time_step" condition="au">5.0000e-01</parameter>
<parameter name="timestep" condition="au">5.0000e-01</parameter>
<parameter name="use_drift" condition="string">no</parameter>
<parameter name="usedrift" condition="string">no</parameter>
<parameter name="walkers" condition="int">8</parameter>
<parameter name="warmup_steps" condition="int">2</parameter>
<parameter name="warmupsteps" condition="int">2</parameter>
  DumpConfig==false Nothing (configurations, state) will be saved.
  Walker Samples are dumped every 1 steps.
</vmc>
    Restarting, cummulative properties:
      energy     = -1.7397e+01
      variance   = 0.0000e+00
      r2accepted = 1.0000e-10
      r2proposed = 1.0000e-10
  Set drift_modifier UNR parameter a = 1.0000e+00
 Using QMCCostFunction::QMCCostFunction
 Using Default Cost Function: Cost = <|E-E_ff|^2>
  Set drift_modifier UNR parameter a = 1.0000e+00
  EstimatorManagerBase::add replace LocalEnergy estimator.
<optimization-report>
<vmc stage="main" blocks="30">
  Cannot make clones again. Use existing 8 clones
  Initial partition of walkers 0 1 2 3 4 5 6 7 8 

  Using Particle by Particle moves
  Walker moves without drift
  Total Sample Size   =80000
  Walker distribution on root = 0 1 2 3 4 5 6 7 8 
  Using Locality Approximation
===== Memory Usage after the buffer registration =====
Available memory on node 0, free + buffers : 17158 MB
Memory footprint by rank 0 on node 0       : 55 MB
==================================================
  Anonymous Buffer size per walker : 2912 Bytes.
MEMORY increase 0 MB VMC::resetRun
====================================================
  SimpleFixedNodeBranch::finalize after a VMC block
    QMC counter        = 1
    time step          = 0.5
    reference energy   = -17.4612
    reference variance = 0.902677
====================================================
  Execution time = 4.3133e+00
</vmc>
<opt stage="setup">
  <log>
   Reading configurations from h5FileRoot H2O_DFT_BFD.s016
  QMCCostFunction is created with 8 threads.
  Using Nonlocal PP in Opt: no
   Number of samples loaded to each thread : 10000 10000 10000 10000 10000 10000 10000 10000 
  VMC Eavg = -1.7171e+01
  VMC Evar = 3.3489e+00
  Total weights = 8.0000e+04
  Execution time = 6.1911e+00
  </log>
</opt>
<opt stage="main" walkers="80000">
  <log>

*****************************************
Building overlap and Hamiltonian matrices
*****************************************

Among totally 164 optimized parameters, largest LM parameter change : 1.8432e-01 at parameter 51

******************************************************************************
Init Cost =  -1.5119e+01    New Cost =  -1.5136e+01  Delta Cost =  -1.7532e-02
******************************************************************************

The new set of parameters is valid. Updating the trial wave function!

*****************************************************************************
Applying the update for shift_i =   1.0000e-02     and shift_s =   2.5000e-01
*****************************************************************************
  Execution time = 1.4524e+01
  </log>
  <optVariables href="H2O_DFT_BFD.s016.opt.xml">
  uu_0  2.343267e-01 1 1  ON 0
  uu_1  1.344079e-01 1 1  ON 1
  uu_2  5.986156e-02 1 1  ON 2
  uu_3  1.004120e-03 1 1  ON 3
  uu_4 -4.306864e-02 1 1  ON 4
  uu_5 -7.735412e-02 1 1  ON 5
  uu_6 -1.008342e-01 1 1  ON 6
  uu_7 -1.093870e-01 1 1  ON 7
  uu_8 -1.112885e-01 1 1  ON 8
  uu_9 -1.086089e-01 1 1  ON 9
 uu_10 -9.970114e-02 1 1  ON 10
 uu_11 -7.836014e-02 1 1  ON 11
 uu_12 -4.524290e-02 1 1  ON 12
 uu_13 -1.812850e-02 1 1  ON 13
 uu_14  4.585770e-02 1 1  ON 14
 uu_15  6.039049e-02 1 1  ON 15
 uu_16  8.526322e-02 1 1  ON 16
 uu_17  8.794867e-02 1 1  ON 17
 uu_18  4.800598e-02 1 1  ON 18
 uu_19  2.390654e-02 1 1  ON 19
  ud_0  4.874540e-01 1 1  ON 20
  ud_1  2.900146e-01 1 1  ON 21
  ud_2  1.510596e-01 1 1  ON 22
  ud_3  5.615165e-02 1 1  ON 23
  ud_4 -7.737840e-04 1 1  ON 24
  ud_5 -4.136858e-02 1 1  ON 25
  ud_6 -7.134260e-02 1 1  ON 26
  ud_7 -9.843424e-02 1 1  ON 27
  ud_8 -1.222182e-01 1 1  ON 28
  ud_9 -1.391463e-01 1 1  ON 29
 ud_10 -1.458432e-01 1 1  ON 30
 ud_11 -1.404905e-01 1 1  ON 31
 ud_12 -1.343107e-01 1 1  ON 32
 ud_13 -1.140129e-01 1 1  ON 33
 ud_14 -6.238526e-02 1 1  ON 34
 ud_15 -1.777907e-02 1 1  ON 35
 ud_16  2.969046e-02 1 1  ON 36
 ud_17  3.751870e-02 1 1  ON 37
 ud_18  2.857190e-02 1 1  ON 38
 ud_19  1.518332e-02 1 1  ON 39
  eH_0 -3.000086e-01 1 1  ON 40
  eH_1 -1.099210e-01 1 1  ON 41
  eH_2 -1.422862e-01 1 1  ON 42
  eH_3 -1.210518e-01 1 1  ON 43
  eH_4 -1.067827e-01 1 1  ON 44
  eH_5 -9.743078e-02 1 1  ON 45
  eH_6 -7.495316e-02 1 1  ON 46
  eH_7 -5.288760e-02 1 1  ON 47
  eH_8 -3.260916e-02 1 1  ON 48
  eH_9 -1.117844e-02 1 1  ON 49
  eO_0 -9.925534e-01 1 1  ON 50
  eO_1 -7.411881e-01 1 1  ON 51
  eO_2  1.986137e-02 1 1  ON 52
  eO_3  3.115196e-01 1 1  ON 53
  eO_4  4.606336e-01 1 1  ON 54
  eO_5  4.904416e-01 1 1  ON 55
  eO_6  4.218046e-01 1 1  ON 56
  eO_7  5.735450e-02 1 1  ON 57
  eO_8 -2.619983e-02 1 1  ON 58
  eO_9 -9.017143e-04 1 1  ON 59
 uuH_0 -7.712040e-03 1 1  ON 60
 uuH_1 -3.544185e-03 1 1  ON 61
 uuH_2  1.945432e-03 1 1  ON 62
 uuH_3  4.232474e-03 1 1  ON 63
 uuH_4  5.780388e-04 1 1  ON 64
 uuH_5 -1.022457e-04 1 1  ON 65
 uuH_6  2.261133e-03 1 1  ON 66
 uuH_7  2.749839e-03 1 1  ON 67
 uuH_8 -4.095062e-03 1 1  ON 68
 uuH_9  7.381305e-03 1 1  ON 69
uuH_10  1.532513e-03 1 1  ON 70
uuH_11  5.626221e-03 1 1  ON 71
uuH_12 -5.886216e-04 1 1  ON 72
uuH_13 -1.088641e-02 1 1  ON 73
uuH_14  1.468935e-03 1 1  ON 74
uuH_15 -5.723963e-04 1 1  ON 75
uuH_16 -9.413403e-03 1 1  ON 76
uuH_17 -1.660125e-03 1 1  ON 77
uuH_18 -6.596141e-03 1 1  ON 78
uuH_19  7.016182e-04 1 1  ON 79
uuH_20  8.240288e-03 1 1  ON 80
uuH_21 -3.597688e-03 1 1  ON 81
uuH_22  2.219765e-03 1 1  ON 82
uuH_23 -2.744885e-03 1 1  ON 83
uuH_24  2.695445e-03 1 1  ON 84
uuH_25 -1.684139e-03 1 1  ON 85
 udH_0 -6.714109e-03 1 1  ON 86
 udH_1 -1.475868e-03 1 1  ON 87
 udH_2  8.700785e-03 1 1  ON 88
 udH_3  3.497085e-03 1 1  ON 89
 udH_4 -1.579692e-05 1 1  ON 90
 udH_5  2.975060e-04 1 1  ON 91
 udH_6  5.894157e-03 1 1  ON 92
 udH_7 -1.263893e-03 1 1  ON 93
 udH_8 -4.221643e-03 1 1  ON 94
 udH_9  2.435408e-03 1 1  ON 95
udH_10  3.267177e-03 1 1  ON 96
udH_11  4.968951e-03 1 1  ON 97
udH_12  2.501723e-03 1 1  ON 98
udH_13 -1.215319e-02 1 1  ON 99
udH_14 -6.917519e-03 1 1  ON 100
udH_15  6.799992e-04 1 1  ON 101
udH_16  2.917713e-03 1 1  ON 102
udH_17 -1.725095e-02 1 1  ON 103
udH_18 -1.076398e-02 1 1  ON 104
udH_19  4.978452e-04 1 1  ON 105
udH_20  6.170134e-03 1 1  ON 106
udH_21  7.026060e-03 1 1  ON 107
udH_22 -1.067366e-03 1 1  ON 108
udH_23 -2.008937e-03 1 1  ON 109
udH_24 -3.272700e-03 1 1  ON 110
udH_25  5.354971e-04 1 1  ON 111
 uuO_0  4.885367e-03 1 1  ON 112
 uuO_1  1.565226e-03 1 1  ON 113
 uuO_2 -7.549688e-03 1 1  ON 114
 uuO_3 -2.790721e-03 1 1  ON 115
 uuO_4  4.801249e-03 1 1  ON 116
 uuO_5  1.966276e-04 1 1  ON 117
 uuO_6 -3.872725e-03 1 1  ON 118
 uuO_7 -5.375507e-03 1 1  ON 119
 uuO_8 -9.717257e-03 1 1  ON 120
 uuO_9 -1.478861e-03 1 1  ON 121
uuO_10 -1.074616e-04 1 1  ON 122
uuO_11  7.517400e-03 1 1  ON 123
uuO_12  9.569572e-03 1 1  ON 124
uuO_13  6.590861e-03 1 1  ON 125
uuO_14 -5.139572e-03 1 1  ON 126
uuO_15 -1.108390e-03 1 1  ON 127
uuO_16  8.796212e-04 1 1  ON 128
uuO_17  7.973367e-03 1 1  ON 129
uuO_18 -2.236260e-03 1 1  ON 130
uuO_19 -1.283695e-02 1 1  ON 131
uuO_20 -6.478156e-03 1 1  ON 132
uuO_21  4.411263e-04 1 1  ON 133
uuO_22  3.961234e-03 1 1  ON 134
uuO_23  5.351531e-03 1 1  ON 135
uuO_24 -5.077341e-04 1 1  ON 136
uuO_25 -1.474376e-03 1 1  ON 137
 udO_0 -7.048934e-03 1 1  ON 138
 udO_1  2.973203e-03 1 1  ON 139
 udO_2  2.093438e-02 1 1  ON 140
 udO_3  1.332015e-03 1 1  ON 141
 udO_4 -6.079517e-03 1 1  ON 142
 udO_5  1.589957e-04 1 1  ON 143
 udO_6  1.652714e-02 1 1  ON 144
 udO_7 -4.448978e-03 1 1  ON 145
 udO_8  2.738653e-02 1 1  ON 146
 udO_9 -3.533298e-03 1 1  ON 147
udO_10  1.262222e-03 1 1  ON 148
udO_11 -1.375929e-02 1 1  ON 149
udO_12 -1.573957e-02 1 1  ON 150
udO_13 -2.595080e-03 1 1  ON 151
udO_14  8.386872e-03 1 1  ON 152
udO_15  1.403835e-03 1 1  ON 153
udO_16  2.493327e-03 1 1  ON 154
udO_17 -2.216922e-03 1 1  ON 155
udO_18  1.377506e-02 1 1  ON 156
udO_19  1.098748e-02 1 1  ON 157
udO_20  1.274041e-03 1 1  ON 158
udO_21 -7.788449e-03 1 1  ON 159
udO_22 -3.810425e-04 1 1  ON 160
udO_23  2.451005e-04 1 1  ON 161
udO_24  3.815179e-03 1 1  ON 162
udO_25 -9.909262e-04 1 1  ON 163
  </optVariables>
   Restore the number of walkers to 8, removing 0 walkers.
</opt>
</optimization-report>
  QMC Execution time = 14.54 secs
  Reusing QMCFixedSampleLinearOptimize
 Using QMCCostFunction::QMCCostFunction
 Using Default Cost Function: Cost = <|E-E_ff|^2>

=========================================================
  Start QMCFixedSampleLinearOptimize
  File Root H2O_DFT_BFD.s017 append = no 
=========================================================
  Skip QMCDriver::putQMCInfo 
  Resetting Properties of the walkers 1 x 14

=========================================================
  Start VMC
  File Root H2O_DFT_BFD.s017 append = no 
=========================================================
Using existing walkers 
  Resetting Properties of the walkers 1 x 14

<vmc function="put">
  qmc_counter=1  my_counter=1
  time step      = 5.0000e-01
  blocks         = 30
  steps          = 334
  substeps       = 5
  current        = 0
  target samples = 8.0000e+04
  walkers/mpi    = 8

  stepsbetweensamples = 1
<parameter name="blocks" condition="int">30</parameter>
<parameter name="blocks_between_recompute" condition="int">0</parameter>
<parameter name="check_properties" condition="int">100</parameter>
<parameter name="checkproperties" condition="int">100</parameter>
<parameter name="current" condition="int">0</parameter>
<parameter name="dmcwalkersperthread" condition="real">1.0000e+04</parameter>
<parameter name="maxcpusecs" condition="real">3.6000e+05</parameter>
<parameter name="record_configs" condition="int">0</parameter>
<parameter name="record_walkers" condition="int">1</parameter>
<parameter name="recordconfigs" condition="int">0</parameter>
<parameter name="recordwalkers" condition="int">1</parameter>
<parameter name="rewind" condition="int">0</parameter>
<parameter name="samples" condition="real">8.0000e+04</parameter>
<parameter name="samplesperthread" condition="real">1.0000e+04</parameter>
<parameter name="steps" condition="int">334</parameter>
<parameter name="stepsbetweensamples" condition="int">1</parameter>
<parameter name="store_configs" condition="int">0</parameter>
<parameter name="storeconfigs" condition="int">0</parameter>
<parameter name="sub_steps" condition="int">5</parameter>
<parameter name="substeps" condition="int">5</parameter>
<parameter name="tau" condition="au">5.0000e-01</parameter>
<parameter name="time_step" condition="au">5.0000e-01</parameter>
<parameter name="timestep" condition="au">5.0000e-01</parameter>
<parameter name="use_drift" condition="string">no</parameter>
<parameter name="usedrift" condition="string">no</parameter>
<parameter name="walkers" condition="int">1</parameter>
<parameter name="warmup_steps" condition="int">2</parameter>
<parameter name="warmupsteps" condition="int">2</parameter>
  DumpConfig==false Nothing (configurations, state) will be saved.
  Walker Samples are dumped every 1 steps.
</vmc>
  Set drift_modifier UNR parameter a = 1.0000e+00
  EstimatorManagerBase::add replace LocalEnergy estimator.
  Set drift_modifier UNR parameter a = 1.0000e+00
  EstimatorManagerBase::add replace LocalEnergy estimator.
<optimization-report>
<vmc stage="main" blocks="30">
  Cannot make clones again. Use existing 8 clones
  Initial partition of walkers 0 1 2 3 4 5 6 7 8 
  Using Particle by Particle moves
  Walker moves without drift
  Total Sample Size   =80000
  Walker distribution on root = 0 1 2 3 4 5 6 7 8 
  Using Locality Approximation
===== Memory Usage after the buffer registration =====
Available memory on node 0, free + buffers : 17034 MB
Memory footprint by rank 0 on node 0       : 382 MB
==================================================
====================================================
  SimpleFixedNodeBranch::finalize after a VMC block
    QMC counter        = 2
    time step          = 0.5
    reference energy   = -17.2188
    reference variance = 0.118256
====================================================
  Execution time = 4.3732e+00
</vmc>
<opt stage="setup">
  <log>
   Reading configurations from h5FileRoot H2O_DFT_BFD.s017
  QMCCostFunction is created with 8 threads.
  Using Nonlocal PP in Opt: no
   Number of samples loaded to each thread : 10000 10000 10000 10000 10000 10000 10000 10000 
  VMC Eavg = -1.7174e+01
  VMC Evar = 6.2172e+00
  Total weights = 8.0000e+04
  Execution time = 6.1840e+00
  </log>
</opt>
<opt stage="main" walkers="80000">
  <log>

*****************************************
Building overlap and Hamiltonian matrices
*****************************************

Among totally 164 optimized parameters, largest LM parameter change : 1.5188e+01 at parameter 156

******************************************************************************
Init Cost =  -1.4834e+01    New Cost =  -1.5146e+00  Delta Cost =   1.3320e+01
******************************************************************************

The new set of parameters is not valid. Revert to the old set!

*****************************************************************************
Applying the update for shift_i =   1.0000e-02     and shift_s =   1.0000e+00
*****************************************************************************
  Execution time = 1.4609e+01
  </log>
  <optVariables href="H2O_DFT_BFD.s017.opt.xml">
  uu_0  2.343267e-01 1 1  ON 0
  uu_1  1.344079e-01 1 1  ON 1
  uu_2  5.986156e-02 1 1  ON 2
  uu_3  1.004120e-03 1 1  ON 3
  uu_4 -4.306864e-02 1 1  ON 4
  uu_5 -7.735412e-02 1 1  ON 5
  uu_6 -1.008342e-01 1 1  ON 6
  uu_7 -1.093870e-01 1 1  ON 7
  uu_8 -1.112885e-01 1 1  ON 8
  uu_9 -1.086089e-01 1 1  ON 9
 uu_10 -9.970114e-02 1 1  ON 10
 uu_11 -7.836014e-02 1 1  ON 11
 uu_12 -4.524290e-02 1 1  ON 12
 uu_13 -1.812850e-02 1 1  ON 13
 uu_14  4.585770e-02 1 1  ON 14
 uu_15  6.039049e-02 1 1  ON 15
 uu_16  8.526322e-02 1 1  ON 16
 uu_17  8.794867e-02 1 1  ON 17
 uu_18  4.800598e-02 1 1  ON 18
 uu_19  2.390654e-02 1 1  ON 19
  ud_0  4.874540e-01 1 1  ON 20
  ud_1  2.900146e-01 1 1  ON 21
  ud_2  1.510596e-01 1 1  ON 22
  ud_3  5.615165e-02 1 1  ON 23
  ud_4 -7.737840e-04 1 1  ON 24
  ud_5 -4.136858e-02 1 1  ON 25
  ud_6 -7.134260e-02 1 1  ON 26
  ud_7 -9.843424e-02 1 1  ON 27
  ud_8 -1.222182e-01 1 1  ON 28
  ud_9 -1.391463e-01 1 1  ON 29
 ud_10 -1.458432e-01 1 1  ON 30
 ud_11 -1.404905e-01 1 1  ON 31
 ud_12 -1.343107e-01 1 1  ON 32
 ud_13 -1.140129e-01 1 1  ON 33
 ud_14 -6.238526e-02 1 1  ON 34
 ud_15 -1.777907e-02 1 1  ON 35
 ud_16  2.969046e-02 1 1  ON 36
 ud_17  3.751870e-02 1 1  ON 37
 ud_18  2.857190e-02 1 1  ON 38
 ud_19  1.518332e-02 1 1  ON 39
  eH_0 -3.000086e-01 1 1  ON 40
  eH_1 -1.099210e-01 1 1  ON 41
  eH_2 -1.422862e-01 1 1  ON 42
  eH_3 -1.210518e-01 1 1  ON 43
  eH_4 -1.067827e-01 1 1  ON 44
  eH_5 -9.743078e-02 1 1  ON 45
  eH_6 -7.495316e-02 1 1  ON 46
  eH_7 -5.288760e-02 1 1  ON 47
  eH_8 -3.260916e-02 1 1  ON 48
  eH_9 -1.117844e-02 1 1  ON 49
  eO_0 -9.925534e-01 1 1  ON 50
  eO_1 -7.411881e-01 1 1  ON 51
  eO_2  1.986137e-02 1 1  ON 52
  eO_3  3.115196e-01 1 1  ON 53
  eO_4  4.606336e-01 1 1  ON 54
  eO_5  4.904416e-01 1 1  ON 55
  eO_6  4.218046e-01 1 1  ON 56
  eO_7  5.735450e-02 1 1  ON 57
  eO_8 -2.619983e-02 1 1  ON 58
  eO_9 -9.017143e-04 1 1  ON 59
 uuH_0 -7.712040e-03 1 1  ON 60
 uuH_1 -3.544185e-03 1 1  ON 61
 uuH_2  1.945432e-03 1 1  ON 62
 uuH_3  4.232474e-03 1 1  ON 63
 uuH_4  5.780388e-04 1 1  ON 64
 uuH_5 -1.022457e-04 1 1  ON 65
 uuH_6  2.261133e-03 1 1  ON 66
 uuH_7  2.749839e-03 1 1  ON 67
 uuH_8 -4.095062e-03 1 1  ON 68
 uuH_9  7.381305e-03 1 1  ON 69
uuH_10  1.532513e-03 1 1  ON 70
uuH_11  5.626221e-03 1 1  ON 71
uuH_12 -5.886216e-04 1 1  ON 72
uuH_13 -1.088641e-02 1 1  ON 73
uuH_14  1.468935e-03 1 1  ON 74
uuH_15 -5.723963e-04 1 1  ON 75
uuH_16 -9.413403e-03 1 1  ON 76
uuH_17 -1.660125e-03 1 1  ON 77
uuH_18 -6.596141e-03 1 1  ON 78
uuH_19  7.016182e-04 1 1  ON 79
uuH_20  8.240288e-03 1 1  ON 80
uuH_21 -3.597688e-03 1 1  ON 81
uuH_22  2.219765e-03 1 1  ON 82
uuH_23 -2.744885e-03 1 1  ON 83
uuH_24  2.695445e-03 1 1  ON 84
uuH_25 -1.684139e-03 1 1  ON 85
 udH_0 -6.714109e-03 1 1  ON 86
 udH_1 -1.475868e-03 1 1  ON 87
 udH_2  8.700785e-03 1 1  ON 88
 udH_3  3.497085e-03 1 1  ON 89
 udH_4 -1.579692e-05 1 1  ON 90
 udH_5  2.975060e-04 1 1  ON 91
 udH_6  5.894157e-03 1 1  ON 92
 udH_7 -1.263893e-03 1 1  ON 93
 udH_8 -4.221643e-03 1 1  ON 94
 udH_9  2.435408e-03 1 1  ON 95
udH_10  3.267177e-03 1 1  ON 96
udH_11  4.968951e-03 1 1  ON 97
udH_12  2.501723e-03 1 1  ON 98
udH_13 -1.215319e-02 1 1  ON 99
udH_14 -6.917519e-03 1 1  ON 100
udH_15  6.799992e-04 1 1  ON 101
udH_16  2.917713e-03 1 1  ON 102
udH_17 -1.725095e-02 1 1  ON 103
udH_18 -1.076398e-02 1 1  ON 104
udH_19  4.978452e-04 1 1  ON 105
udH_20  6.170134e-03 1 1  ON 106
udH_21  7.026060e-03 1 1  ON 107
udH_22 -1.067366e-03 1 1  ON 108
udH_23 -2.008937e-03 1 1  ON 109
udH_24 -3.272700e-03 1 1  ON 110
udH_25  5.354971e-04 1 1  ON 111
 uuO_0  4.885367e-03 1 1  ON 112
 uuO_1  1.565226e-03 1 1  ON 113
 uuO_2 -7.549688e-03 1 1  ON 114
 uuO_3 -2.790721e-03 1 1  ON 115
 uuO_4  4.801249e-03 1 1  ON 116
 uuO_5  1.966276e-04 1 1  ON 117
 uuO_6 -3.872725e-03 1 1  ON 118
 uuO_7 -5.375507e-03 1 1  ON 119
 uuO_8 -9.717257e-03 1 1  ON 120
 uuO_9 -1.478861e-03 1 1  ON 121
uuO_10 -1.074616e-04 1 1  ON 122
uuO_11  7.517400e-03 1 1  ON 123
uuO_12  9.569572e-03 1 1  ON 124
uuO_13  6.590861e-03 1 1  ON 125
uuO_14 -5.139572e-03 1 1  ON 126
uuO_15 -1.108390e-03 1 1  ON 127
uuO_16  8.796212e-04 1 1  ON 128
uuO_17  7.973367e-03 1 1  ON 129
uuO_18 -2.236260e-03 1 1  ON 130
uuO_19 -1.283695e-02 1 1  ON 131
uuO_20 -6.478156e-03 1 1  ON 132
uuO_21  4.411263e-04 1 1  ON 133
uuO_22  3.961234e-03 1 1  ON 134
uuO_23  5.351531e-03 1 1  ON 135
uuO_24 -5.077341e-04 1 1  ON 136
uuO_25 -1.474376e-03 1 1  ON 137
 udO_0 -7.048934e-03 1 1  ON 138
 udO_1  2.973203e-03 1 1  ON 139
 udO_2  2.093438e-02 1 1  ON 140
 udO_3  1.332015e-03 1 1  ON 141
 udO_4 -6.079517e-03 1 1  ON 142
 udO_5  1.589957e-04 1 1  ON 143
 udO_6  1.652714e-02 1 1  ON 144
 udO_7 -4.448978e-03 1 1  ON 145
 udO_8  2.738653e-02 1 1  ON 146
 udO_9 -3.533298e-03 1 1  ON 147
udO_10  1.262222e-03 1 1  ON 148
udO_11 -1.375929e-02 1 1  ON 149
udO_12 -1.573957e-02 1 1  ON 150
udO_13 -2.595080e-03 1 1  ON 151
udO_14  8.386872e-03 1 1  ON 152
udO_15  1.403835e-03 1 1  ON 153
udO_16  2.493327e-03 1 1  ON 154
udO_17 -2.216922e-03 1 1  ON 155
udO_18  1.377506e-02 1 1  ON 156
udO_19  1.098748e-02 1 1  ON 157
udO_20  1.274041e-03 1 1  ON 158
udO_21 -7.788449e-03 1 1  ON 159
udO_22 -3.810425e-04 1 1  ON 160
udO_23  2.451005e-04 1 1  ON 161
udO_24  3.815179e-03 1 1  ON 162
udO_25 -9.909262e-04 1 1  ON 163
  </optVariables>
   Restore the number of walkers to 8, removing 0 walkers.
</opt>
</optimization-report>
  QMC Execution time = 14.65 secs
  Reusing QMCFixedSampleLinearOptimize
 Using QMCCostFunction::QMCCostFunction
 Using Default Cost Function: Cost = <|E-E_ff|^2>

=========================================================
  Start QMCFixedSampleLinearOptimize
  File Root H2O_DFT_BFD.s018 append = no 
=========================================================
  Skip QMCDriver::putQMCInfo 
  Resetting Properties of the walkers 1 x 14

=========================================================
  Start VMC
  File Root H2O_DFT_BFD.s018 append = no 
=========================================================
Using existing walkers 
  Resetting Properties of the walkers 1 x 14

<vmc function="put">
  qmc_counter=2  my_counter=2
  time step      = 5.0000e-01
  blocks         = 30
  steps          = 334
  substeps       = 5
  current        = 0
  target samples = 8.0000e+04
  walkers/mpi    = 8

  stepsbetweensamples = 1
<parameter name="blocks" condition="int">30</parameter>
<parameter name="blocks_between_recompute" condition="int">0</parameter>
<parameter name="check_properties" condition="int">100</parameter>
<parameter name="checkproperties" condition="int">100</parameter>
<parameter name="current" condition="int">0</parameter>
<parameter name="dmcwalkersperthread" condition="real">1.0000e+04</parameter>
<parameter name="maxcpusecs" condition="real">3.6000e+05</parameter>
<parameter name="record_configs" condition="int">0</parameter>
<parameter name="record_walkers" condition="int">1</parameter>
<parameter name="recordconfigs" condition="int">0</parameter>
<parameter name="recordwalkers" condition="int">1</parameter>
<parameter name="rewind" condition="int">0</parameter>
<parameter name="samples" condition="real">8.0000e+04</parameter>
<parameter name="samplesperthread" condition="real">1.0000e+04</parameter>
<parameter name="steps" condition="int">334</parameter>
<parameter name="stepsbetweensamples" condition="int">1</parameter>
<parameter name="store_configs" condition="int">0</parameter>
<parameter name="storeconfigs" condition="int">0</parameter>
<parameter name="sub_steps" condition="int">5</parameter>
<parameter name="substeps" condition="int">5</parameter>
<parameter name="tau" condition="au">5.0000e-01</parameter>
<parameter name="time_step" condition="au">5.0000e-01</parameter>
<parameter name="timestep" condition="au">5.0000e-01</parameter>
<parameter name="use_drift" condition="string">no</parameter>
<parameter name="usedrift" condition="string">no</parameter>
<parameter name="walkers" condition="int">1</parameter>
<parameter name="warmup_steps" condition="int">2</parameter>
<parameter name="warmupsteps" condition="int">2</parameter>
  DumpConfig==false Nothing (configurations, state) will be saved.
  Walker Samples are dumped every 1 steps.
</vmc>
  Set drift_modifier UNR parameter a = 1.0000e+00
  EstimatorManagerBase::add replace LocalEnergy estimator.
  Set drift_modifier UNR parameter a = 1.0000e+00
  EstimatorManagerBase::add replace LocalEnergy estimator.
<optimization-report>
<vmc stage="main" blocks="30">
  Cannot make clones again. Use existing 8 clones
  Initial partition of walkers 0 1 2 3 4 5 6 7 8 
  Using Particle by Particle moves
  Walker moves without drift
  Total Sample Size   =80000
  Walker distribution on root = 0 1 2 3 4 5 6 7 8 
  Using Locality Approximation
===== Memory Usage after the buffer registration =====
Available memory on node 0, free + buffers : 16860 MB
Memory footprint by rank 0 on node 0       : 383 MB
==================================================
====================================================
  SimpleFixedNodeBranch::finalize after a VMC block
    QMC counter        = 3
    time step          = 0.5
    reference energy   = -17.3936
    reference variance = 0.228432
====================================================
  Execution time = 4.3207e+00
</vmc>
<opt stage="setup">
  <log>
   Reading configurations from h5FileRoot H2O_DFT_BFD.s018
  QMCCostFunction is created with 8 threads.
  Using Nonlocal PP in Opt: no
   Number of samples loaded to each thread : 10000 10000 10000 10000 10000 10000 10000 10000 
  VMC Eavg = -1.7177e+01
  VMC Evar = 3.6299e+00
  Total weights = 8.0000e+04
  Execution time = 6.1940e+00
  </log>
</opt>
<opt stage="main" walkers="80000">
  <log>

*****************************************
Building overlap and Hamiltonian matrices
*****************************************

Among totally 164 optimized parameters, largest LM parameter change : 2.1966e-01 at parameter 55

******************************************************************************
Init Cost =  -1.5096e+01    New Cost =  -1.5089e+01  Delta Cost =   7.2526e-03
******************************************************************************

The new set of parameters is valid. Updating the trial wave function!

*****************************************************************************
Applying the update for shift_i =   1.0000e-02     and shift_s =   2.5000e-01
*****************************************************************************
  Execution time = 1.4530e+01
  </log>
  <optVariables href="H2O_DFT_BFD.s018.opt.xml">
  uu_0  2.397475e-01 1 1  ON 0
  uu_1  1.346660e-01 1 1  ON 1
  uu_2  6.543104e-02 1 1  ON 2
  uu_3  8.878769e-03 1 1  ON 3
  uu_4 -3.494511e-02 1 1  ON 4
  uu_5 -7.132121e-02 1 1  ON 5
  uu_6 -9.758390e-02 1 1  ON 6
  uu_7 -1.077437e-01 1 1  ON 7
  uu_8 -1.123975e-01 1 1  ON 8
  uu_9 -1.146126e-01 1 1  ON 9
 uu_10 -1.052735e-01 1 1  ON 10
 uu_11 -9.100243e-02 1 1  ON 11
 uu_12 -5.663711e-02 1 1  ON 12
 uu_13 -2.186901e-02 1 1  ON 13
 uu_14  4.719087e-02 1 1  ON 14
 uu_15  5.917671e-02 1 1  ON 15
 uu_16  9.245815e-02 1 1  ON 16
 uu_17  8.881251e-02 1 1  ON 17
 uu_18  4.342393e-02 1 1  ON 18
 uu_19  2.267286e-02 1 1  ON 19
  ud_0  4.896244e-01 1 1  ON 20
  ud_1  2.870173e-01 1 1  ON 21
  ud_2  1.527711e-01 1 1  ON 22
  ud_3  5.773992e-02 1 1  ON 23
  ud_4  3.713231e-03 1 1  ON 24
  ud_5 -3.170518e-02 1 1  ON 25
  ud_6 -6.281178e-02 1 1  ON 26
  ud_7 -8.752714e-02 1 1  ON 27
  ud_8 -1.144207e-01 1 1  ON 28
  ud_9 -1.360383e-01 1 1  ON 29
 ud_10 -1.502034e-01 1 1  ON 30
 ud_11 -1.512853e-01 1 1  ON 31
 ud_12 -1.368276e-01 1 1  ON 32
 ud_13 -1.062120e-01 1 1  ON 33
 ud_14 -7.117966e-02 1 1  ON 34
 ud_15 -3.158277e-02 1 1  ON 35
 ud_16  1.465561e-02 1 1  ON 36
 ud_17  3.640651e-02 1 1  ON 37
 ud_18  2.978080e-02 1 1  ON 38
 ud_19  1.506443e-02 1 1  ON 39
  eH_0 -2.988552e-01 1 1  ON 40
  eH_1 -1.045814e-01 1 1  ON 41
  eH_2 -1.454288e-01 1 1  ON 42
  eH_3 -1.232090e-01 1 1  ON 43
  eH_4 -1.117732e-01 1 1  ON 44
  eH_5 -9.674456e-02 1 1  ON 45
  eH_6 -7.280746e-02 1 1  ON 46
  eH_7 -5.688559e-02 1 1  ON 47
  eH_8 -3.102075e-02 1 1  ON 48
  eH_9 -1.646004e-02 1 1  ON 49
  eO_0 -9.842205e-01 1 1  ON 50
  eO_1 -8.919529e-01 1 1  ON 51
  eO_2  9.526822e-02 1 1  ON 52
  eO_3  2.823649e-01 1 1  ON 53
  eO_4  6.538294e-01 1 1  ON 54
  eO_5  2.707855e-01 1 1  ON 55
  eO_6  5.107898e-01 1 1  ON 56
  eO_7  9.764691e-02 1 1  ON 57
  eO_8 -3.262008e-02 1 1  ON 58
  eO_9 -1.119003e-03 1 1  ON 59
 uuH_0 -1.032188e-02 1 1  ON 60
 uuH_1 -5.620506e-03 1 1  ON 61
 uuH_2  5.679138e-03 1 1  ON 62
 uuH_3  6.458294e-03 1 1  ON 63
 uuH_4 -2.410610e-04 1 1  ON 64
 uuH_5 -1.124135e-04 1 1  ON 65
 uuH_6 -1.873195e-03 1 1  ON 66
 uuH_7 -1.778602e-03 1 1  ON 67
 uuH_8 -6.180250e-03 1 1  ON 68
 uuH_9  1.339939e-02 1 1  ON 69
uuH_10  3.613408e-03 1 1  ON 70
uuH_11  1.046827e-02 1 1  ON 71
uuH_12 -7.027194e-04 1 1  ON 72
uuH_13 -1.530423e-02 1 1  ON 73
uuH_14 -3.914787e-03 1 1  ON 74
uuH_15  7.510779e-04 1 1  ON 75
uuH_16 -2.166156e-02 1 1  ON 76
uuH_17 -1.090671e-02 1 1  ON 77
uuH_18 -9.958575e-03 1 1  ON 78
uuH_19  3.424415e-03 1 1  ON 79
uuH_20  1.352832e-02 1 1  ON 80
uuH_21  1.089456e-03 1 1  ON 81
uuH_22 -1.597337e-04 1 1  ON 82
uuH_23 -4.325683e-03 1 1  ON 83
uuH_24  3.205422e-04 1 1  ON 84
uuH_25 -5.097688e-04 1 1  ON 85
 udH_0 -2.493885e-02 1 1  ON 86
 udH_1  7.906166e-04 1 1  ON 87
 udH_2  5.381023e-02 1 1  ON 88
 udH_3  9.475845e-03 1 1  ON 89
 udH_4 -1.200361e-02 1 1  ON 90
 udH_5 -3.050798e-04 1 1  ON 91
 udH_6  4.357362e-02 1 1  ON 92
 udH_7 -1.702449e-02 1 1  ON 93
 udH_8  4.801737e-02 1 1  ON 94
 udH_9 -5.374230e-03 1 1  ON 95
udH_10  7.005878e-03 1 1  ON 96
udH_11 -1.834079e-02 1 1  ON 97
udH_12 -2.578138e-02 1 1  ON 98
udH_13 -2.124582e-02 1 1  ON 99
udH_14  3.253459e-03 1 1  ON 100
udH_15  3.986968e-03 1 1  ON 101
udH_16  1.870268e-02 1 1  ON 102
udH_17 -3.199938e-02 1 1  ON 103
udH_18 -2.697061e-03 1 1  ON 104
udH_19  2.680759e-02 1 1  ON 105
udH_20  7.776534e-03 1 1  ON 106
udH_21  7.234508e-03 1 1  ON 107
udH_22 -7.501426e-03 1 1  ON 108
udH_23 -3.113642e-03 1 1  ON 109
udH_24 -5.226604e-03 1 1  ON 110
udH_25  2.888542e-03 1 1  ON 111
 uuO_0  6.682030e-03 1 1  ON 112
 uuO_1 -1.182688e-03 1 1  ON 113
 uuO_2 -1.685109e-02 1 1  ON 114
 uuO_3  8.908217e-04 1 1  ON 115
 uuO_4  1.163168e-02 1 1  ON 116
 uuO_5  2.075778e-04 1 1  ON 117
 uuO_6 -1.215043e-02 1 1  ON 118
 uuO_7 -1.545429e-02 1 1  ON 119
 uuO_8 -3.071538e-02 1 1  ON 120
 uuO_9  4.562480e-03 1 1  ON 121
uuO_10  5.600159e-03 1 1  ON 122
uuO_11  1.960302e-02 1 1  ON 123
uuO_12  1.961672e-02 1 1  ON 124
uuO_13 -2.125856e-03 1 1  ON 125
uuO_14 -1.610224e-02 1 1  ON 126
uuO_15 -6.272237e-04 1 1  ON 127
uuO_16 -2.711910e-03 1 1  ON 128
uuO_17 -8.892688e-03 1 1  ON 129
uuO_18 -2.966757e-03 1 1  ON 130
uuO_19 -1.847032e-02 1 1  ON 131
uuO_20 -1.916883e-03 1 1  ON 132
uuO_21  4.766766e-03 1 1  ON 133
uuO_22  3.402409e-03 1 1  ON 134
uuO_23  4.187824e-03 1 1  ON 135
uuO_24 -2.859222e-03 1 1  ON 136
uuO_25 -6.659149e-04 1 1  ON 137
 udO_0 -1.197919e-02 1 1  ON 138
 udO_1 -7.043660e-03 1 1  ON 139
 udO_2  8.009840e-03 1 1  ON 140
 udO_3  9.327229e-03 1 1  ON 141
 udO_4 -5.868531e-04 1 1  ON 142
 udO_5  5.235447e-04 1 1  ON 143
 udO_6 -2.388727e-02 1 1  ON 144
 udO_7  3.166095e-02 1 1  ON 145
 udO_8  3.288622e-02 1 1  ON 146
 udO_9  3.600611e-02 1 1  ON 147
udO_10  1.424434e-02 1 1  ON 148
udO_11 -5.839239e-02 1 1  ON 149
udO_12 -2.914098e-02 1 1  ON 150
udO_13 -3.791556e-02 1 1  ON 151
udO_14  3.276155e-02 1 1  ON 152
udO_15 -3.712348e-04 1 1  ON 153
udO_16 -8.214516e-02 1 1  ON 154
udO_17 -3.394697e-02 1 1  ON 155
udO_18  1.343431e-01 1 1  ON 156
udO_19  7.718427e-03 1 1  ON 157
udO_20  5.638610e-02 1 1  ON 158
udO_21 -7.297357e-02 1 1  ON 159
udO_22  1.316973e-02 1 1  ON 160
udO_23 -2.747579e-02 1 1  ON 161
udO_24  3.681692e-02 1 1  ON 162
udO_25 -1.067563e-02 1 1  ON 163
  </optVariables>
   Restore the number of walkers to 8, removing 0 walkers.
</opt>
</optimization-report>
  QMC Execution time = 14.54 secs
  Reusing QMCFixedSampleLinearOptimize
 Using QMCCostFunction::QMCCostFunction
 Using Default Cost Function: Cost = <|E-E_ff|^2>

=========================================================
  Start QMCFixedSampleLinearOptimize
  File Root H2O_DFT_BFD.s019 append = no 
=========================================================
  Skip QMCDriver::putQMCInfo 
  Resetting Properties of the walkers 1 x 14

=========================================================
  Start VMC
  File Root H2O_DFT_BFD.s019 append = no 
=========================================================
Using existing walkers 
  Resetting Properties of the walkers 1 x 14

<vmc function="put">
  qmc_counter=3  my_counter=3
  time step      = 5.0000e-01
  blocks         = 30
  steps          = 334
  substeps       = 5
  current        = 0
  target samples = 8.0000e+04
  walkers/mpi    = 8

  stepsbetweensamples = 1
<parameter name="blocks" condition="int">30</parameter>
<parameter name="blocks_between_recompute" condition="int">0</parameter>
<parameter name="check_properties" condition="int">100</parameter>
<parameter name="checkproperties" condition="int">100</parameter>
<parameter name="current" condition="int">0</parameter>
<parameter name="dmcwalkersperthread" condition="real">1.0000e+04</parameter>
<parameter name="maxcpusecs" condition="real">3.6000e+05</parameter>
<parameter name="record_configs" condition="int">0</parameter>
<parameter name="record_walkers" condition="int">1</parameter>
<parameter name="recordconfigs" condition="int">0</parameter>
<parameter name="recordwalkers" condition="int">1</parameter>
<parameter name="rewind" condition="int">0</parameter>
<parameter name="samples" condition="real">8.0000e+04</parameter>
<parameter name="samplesperthread" condition="real">1.0000e+04</parameter>
<parameter name="steps" condition="int">334</parameter>
<parameter name="stepsbetweensamples" condition="int">1</parameter>
<parameter name="store_configs" condition="int">0</parameter>
<parameter name="storeconfigs" condition="int">0</parameter>
<parameter name="sub_steps" condition="int">5</parameter>
<parameter name="substeps" condition="int">5</parameter>
<parameter name="tau" condition="au">5.0000e-01</parameter>
<parameter name="time_step" condition="au">5.0000e-01</parameter>
<parameter name="timestep" condition="au">5.0000e-01</parameter>
<parameter name="use_drift" condition="string">no</parameter>
<parameter name="usedrift" condition="string">no</parameter>
<parameter name="walkers" condition="int">1</parameter>
<parameter name="warmup_steps" condition="int">2</parameter>
<parameter name="warmupsteps" condition="int">2</parameter>
  DumpConfig==false Nothing (configurations, state) will be saved.
  Walker Samples are dumped every 1 steps.
</vmc>
  Set drift_modifier UNR parameter a = 1.0000e+00
  EstimatorManagerBase::add replace LocalEnergy estimator.
  Set drift_modifier UNR parameter a = 1.0000e+00
  EstimatorManagerBase::add replace LocalEnergy estimator.
<optimization-report>
<vmc stage="main" blocks="30">
  Cannot make clones again. Use existing 8 clones
  Initial partition of walkers 0 1 2 3 4 5 6 7 8 
  Using Particle by Particle moves
  Walker moves without drift
  Total Sample Size   =80000
  Walker distribution on root = 0 1 2 3 4 5 6 7 8 
  Using Locality Approximation
===== Memory Usage after the buffer registration =====
Available memory on node 0, free + buffers : 16860 MB
Memory footprint by rank 0 on node 0       : 383 MB
==================================================
====================================================
  SimpleFixedNodeBranch::finalize after a VMC block
    QMC counter        = 4
    time step          = 0.5
    reference energy   = -17.2729
    reference variance = 0.319048
====================================================
  Execution time = 4.3671e+00
</vmc>
<opt stage="setup">
  <log>
   Reading configurations from h5FileRoot H2O_DFT_BFD.s019
  QMCCostFunction is created with 8 threads.
  Using Nonlocal PP in Opt: no
   Number of samples loaded to each thread : 10000 10000 10000 10000 10000 10000 10000 10000 
  VMC Eavg = -1.7155e+01
  VMC Evar = 3.7327e+00
  Total weights = 8.0000e+04
  Execution time = 6.1569e+00
  </log>
</opt>
<opt stage="main" walkers="80000">
  <log>

*****************************************
Building overlap and Hamiltonian matrices
*****************************************

Among totally 164 optimized parameters, largest LM parameter change : 2.0477e-01 at parameter 55

******************************************************************************
Init Cost =  -1.5066e+01    New Cost =  -1.5068e+01  Delta Cost =  -1.9642e-03
******************************************************************************

The new set of parameters is valid. Updating the trial wave function!

*****************************************************************************
Applying the update for shift_i =   1.0000e-02     and shift_s =   6.2500e-02
*****************************************************************************
  Execution time = 1.4558e+01
  </log>
  <optVariables href="H2O_DFT_BFD.s019.opt.xml">
  uu_0  2.353613e-01 1 1  ON 0
  uu_1  1.307669e-01 1 1  ON 1
  uu_2  5.378610e-02 1 1  ON 2
  uu_3 -3.407992e-03 1 1  ON 3
  uu_4 -4.363529e-02 1 1  ON 4
  uu_5 -7.607385e-02 1 1  ON 5
  uu_6 -1.020571e-01 1 1  ON 6
  uu_7 -1.153504e-01 1 1  ON 7
  uu_8 -1.164168e-01 1 1  ON 8
  uu_9 -1.127662e-01 1 1  ON 9
 uu_10 -9.777463e-02 1 1  ON 10
 uu_11 -7.470231e-02 1 1  ON 11
 uu_12 -4.848845e-02 1 1  ON 12
 uu_13 -1.485924e-02 1 1  ON 13
 uu_14  4.681606e-02 1 1  ON 14
 uu_15  6.852888e-02 1 1  ON 15
 uu_16  9.357273e-02 1 1  ON 16
 uu_17  9.224340e-02 1 1  ON 17
 uu_18  4.493351e-02 1 1  ON 18
 uu_19  2.624660e-02 1 1  ON 19
  ud_0  4.969708e-01 1 1  ON 20
  ud_1  3.023783e-01 1 1  ON 21
  ud_2  1.616042e-01 1 1  ON 22
  ud_3  6.630551e-02 1 1  ON 23
  ud_4  8.162033e-03 1 1  ON 24
  ud_5 -3.183417e-02 1 1  ON 25
  ud_6 -6.503521e-02 1 1  ON 26
  ud_7 -9.325554e-02 1 1  ON 27
  ud_8 -1.243795e-01 1 1  ON 28
  ud_9 -1.445822e-01 1 1  ON 29
 ud_10 -1.575511e-01 1 1  ON 30
 ud_11 -1.626950e-01 1 1  ON 31
 ud_12 -1.436722e-01 1 1  ON 32
 ud_13 -1.113255e-01 1 1  ON 33
 ud_14 -6.551599e-02 1 1  ON 34
 ud_15 -2.017975e-02 1 1  ON 35
 ud_16  1.819279e-02 1 1  ON 36
 ud_17  3.139427e-02 1 1  ON 37
 ud_18  2.606780e-02 1 1  ON 38
 ud_19  1.509975e-02 1 1  ON 39
  eH_0 -3.007195e-01 1 1  ON 40
  eH_1 -1.131598e-01 1 1  ON 41
  eH_2 -1.492346e-01 1 1  ON 42
  eH_3 -1.243742e-01 1 1  ON 43
  eH_4 -1.104383e-01 1 1  ON 44
  eH_5 -1.004703e-01 1 1  ON 45
  eH_6 -7.662125e-02 1 1  ON 46
  eH_7 -5.836554e-02 1 1  ON 47
  eH_8 -3.643594e-02 1 1  ON 48
  eH_9 -2.098465e-02 1 1  ON 49
  eO_0 -1.077740e+00 1 1  ON 50
  eO_1 -9.179107e-01 1 1  ON 51
  eO_2  4.918800e-02 1 1  ON 52
  eO_3  3.495461e-01 1 1  ON 53
  eO_4  5.290449e-01 1 1  ON 54
  eO_5  4.755549e-01 1 1  ON 55
  eO_6  5.129617e-01 1 1  ON 56
  eO_7  1.135460e-01 1 1  ON 57
  eO_8 -3.202915e-02 1 1  ON 58
  eO_9 -1.312348e-03 1 1  ON 59
 uuH_0 -1.124963e-02 1 1  ON 60
 uuH_1 -6.027322e-03 1 1  ON 61
 uuH_2  6.077821e-05 1 1  ON 62
 uuH_3  6.647225e-03 1 1  ON 63
 uuH_4  2.258631e-04 1 1  ON 64
 uuH_5 -2.684529e-04 1 1  ON 65
 uuH_6 -2.962382e-03 1 1  ON 66
 uuH_7  4.044860e-03 1 1  ON 67
 uuH_8 -1.644777e-02 1 1  ON 68
 uuH_9  1.743894e-02 1 1  ON 69
uuH_10  2.009018e-03 1 1  ON 70
uuH_11  1.683846e-02 1 1  ON 71
uuH_12  2.154189e-03 1 1  ON 72
uuH_13 -2.268743e-02 1 1  ON 73
uuH_14 -4.860994e-03 1 1  ON 74
uuH_15  2.424285e-04 1 1  ON 75
uuH_16 -2.740454e-02 1 1  ON 76
uuH_17 -1.437235e-02 1 1  ON 77
uuH_18 -1.815765e-02 1 1  ON 78
uuH_19  5.207999e-03 1 1  ON 79
uuH_20  2.264834e-02 1 1  ON 80
uuH_21  1.498981e-03 1 1  ON 81
uuH_22 -9.441985e-04 1 1  ON 82
uuH_23 -9.555266e-03 1 1  ON 83
uuH_24  1.147515e-03 1 1  ON 84
uuH_25 -1.066637e-04 1 1  ON 85
 udH_0 -1.975164e-02 1 1  ON 86
 udH_1  2.895235e-03 1 1  ON 87
 udH_2  3.629863e-02 1 1  ON 88
 udH_3  4.569885e-03 1 1  ON 89
 udH_4 -1.126718e-02 1 1  ON 90
 udH_5 -1.306849e-04 1 1  ON 91
 udH_6  3.530325e-02 1 1  ON 92
 udH_7  4.589575e-04 1 1  ON 93
 udH_8  2.519206e-02 1 1  ON 94
 udH_9 -5.138760e-03 1 1  ON 95
udH_10 -1.236398e-03 1 1  ON 96
udH_11 -7.220000e-03 1 1  ON 97
udH_12 -1.422286e-02 1 1  ON 98
udH_13 -2.002261e-02 1 1  ON 99
udH_14 -1.560331e-03 1 1  ON 100
udH_15  2.668265e-03 1 1  ON 101
udH_16  2.034358e-02 1 1  ON 102
udH_17 -3.077215e-02 1 1  ON 103
udH_18 -5.066722e-03 1 1  ON 104
udH_19  1.520929e-02 1 1  ON 105
udH_20  9.629488e-03 1 1  ON 106
udH_21  5.422368e-03 1 1  ON 107
udH_22 -4.169497e-03 1 1  ON 108
udH_23 -5.365426e-03 1 1  ON 109
udH_24 -2.166541e-03 1 1  ON 110
udH_25  1.153815e-03 1 1  ON 111
 uuO_0  7.813595e-03 1 1  ON 112
 uuO_1 -2.023469e-03 1 1  ON 113
 uuO_2 -2.258135e-02 1 1  ON 114
 uuO_3 -1.140872e-03 1 1  ON 115
 uuO_4  9.898926e-03 1 1  ON 116
 uuO_5  3.351356e-04 1 1  ON 117
 uuO_6 -1.908503e-02 1 1  ON 118
 uuO_7 -2.156787e-03 1 1  ON 119
 uuO_8 -3.306732e-02 1 1  ON 120
 uuO_9  7.603448e-03 1 1  ON 121
uuO_10  1.374792e-03 1 1  ON 122
uuO_11  1.971721e-02 1 1  ON 123
uuO_12  1.855588e-02 1 1  ON 124
uuO_13  3.197364e-04 1 1  ON 125
uuO_14 -1.057554e-02 1 1  ON 126
uuO_15 -1.718048e-03 1 1  ON 127
uuO_16 -4.059490e-03 1 1  ON 128
uuO_17  1.582584e-03 1 1  ON 129
uuO_18 -4.651315e-03 1 1  ON 130
uuO_19 -1.755798e-02 1 1  ON 131
uuO_20 -6.955674e-03 1 1  ON 132
uuO_21  5.838740e-04 1 1  ON 133
uuO_22  4.935376e-03 1 1  ON 134
uuO_23  1.022683e-02 1 1  ON 135
uuO_24 -1.425243e-03 1 1  ON 136
uuO_25 -1.622111e-03 1 1  ON 137
 udO_0 -1.134009e-02 1 1  ON 138
 udO_1 -5.761717e-03 1 1  ON 139
 udO_2  2.353096e-02 1 1  ON 140
 udO_3  1.063965e-02 1 1  ON 141
 udO_4  6.005394e-04 1 1  ON 142
 udO_5  8.844696e-04 1 1  ON 143
 udO_6 -9.836829e-03 1 1  ON 144
 udO_7  3.460997e-02 1 1  ON 145
 udO_8  3.420557e-02 1 1  ON 146
 udO_9  1.639835e-02 1 1  ON 147
udO_10  1.855985e-02 1 1  ON 148
udO_11 -6.865381e-02 1 1  ON 149
udO_12 -1.005390e-02 1 1  ON 150
udO_13 -2.723937e-02 1 1  ON 151
udO_14  1.302730e-02 1 1  ON 152
udO_15 -2.173001e-04 1 1  ON 153
udO_16 -2.661296e-02 1 1  ON 154
udO_17 -4.947086e-02 1 1  ON 155
udO_18  1.112319e-01 1 1  ON 156
udO_19 -1.077989e-02 1 1  ON 157
udO_20  2.590265e-02 1 1  ON 158
udO_21 -3.681796e-02 1 1  ON 159
udO_22  8.588870e-03 1 1  ON 160
udO_23 -1.082661e-02 1 1  ON 161
udO_24  1.584733e-02 1 1  ON 162
udO_25 -5.251777e-03 1 1  ON 163
  </optVariables>
   Restore the number of walkers to 8, removing 0 walkers.
</opt>
</optimization-report>
  QMC Execution time = 14.58 secs
Loop execution max-interations = 10
  Reusing QMCFixedSampleLinearOptimize
 Using QMCCostFunction::QMCCostFunction
 Using Default Cost Function: Cost = <|E-E_ff|^2>

=========================================================
  Start QMCFixedSampleLinearOptimize
  File Root H2O_DFT_BFD.s020 append = no 
=========================================================
  Skip QMCDriver::putQMCInfo 
  Resetting Properties of the walkers 1 x 14

=========================================================
  Start VMC
  File Root H2O_DFT_BFD.s020 append = no 
=========================================================
  Using the current 8 walkers.
  Total number of walkers: 8.0000e+00
  Total weight: 8.0000e+00
  Resetting Properties of the walkers 1 x 14

<vmc function="put">
  qmc_counter=0  my_counter=4
  time step      = 5.0000e-01
  blocks         = 80
  steps          = 334
  substeps       = 5
  current        = 0
  target samples = 1.6000e+05
  walkers/mpi    = 8

  stepsbetweensamples = 1
<parameter name="blocks" condition="int">80</parameter>
<parameter name="blocks_between_recompute" condition="int">0</parameter>
<parameter name="check_properties" condition="int">100</parameter>
<parameter name="checkproperties" condition="int">100</parameter>
<parameter name="current" condition="int">0</parameter>
<parameter name="dmcwalkersperthread" condition="real">2.0000e+04</parameter>
<parameter name="maxcpusecs" condition="real">3.6000e+05</parameter>
<parameter name="record_configs" condition="int">0</parameter>
<parameter name="record_walkers" condition="int">1</parameter>
<parameter name="recordconfigs" condition="int">0</parameter>
<parameter name="recordwalkers" condition="int">1</parameter>
<parameter name="rewind" condition="int">0</parameter>
<parameter name="samples" condition="real">1.6000e+05</parameter>
<parameter name="samplesperthread" condition="real">2.0000e+04</parameter>
<parameter name="steps" condition="int">334</parameter>
<parameter name="stepsbetweensamples" condition="int">1</parameter>
<parameter name="store_configs" condition="int">0</parameter>
<parameter name="storeconfigs" condition="int">0</parameter>
<parameter name="sub_steps" condition="int">5</parameter>
<parameter name="substeps" condition="int">5</parameter>
<parameter name="tau" condition="au">5.0000e-01</parameter>
<parameter name="time_step" condition="au">5.0000e-01</parameter>
<parameter name="timestep" condition="au">5.0000e-01</parameter>
<parameter name="use_drift" condition="string">no</parameter>
<parameter name="usedrift" condition="string">no</parameter>
<parameter name="walkers" condition="int">8</parameter>
<parameter name="warmup_steps" condition="int">5</parameter>
<parameter name="warmupsteps" condition="int">5</parameter>
  DumpConfig==false Nothing (configurations, state) will be saved.
  Walker Samples are dumped every 1 steps.
</vmc>
  Set drift_modifier UNR parameter a = 1.0000e+00
  EstimatorManagerBase::add replace LocalEnergy estimator.
  Set drift_modifier UNR parameter a = 1.0000e+00
  EstimatorManagerBase::add replace LocalEnergy estimator.
<optimization-report>
<vmc stage="main" blocks="80">
  Cannot make clones again. Use existing 8 clones
  Initial partition of walkers 0 1 2 3 4 5 6 7 8 
  Using Particle by Particle moves
  Walker moves without drift
  Total Sample Size   =160000
  Walker distribution on root = 0 1 2 3 4 5 6 7 8 
  Using Locality Approximation
===== Memory Usage after the buffer registration =====
Available memory on node 0, free + buffers : 16861 MB
Memory footprint by rank 0 on node 0       : 383 MB
==================================================
====================================================
  SimpleFixedNodeBranch::finalize after a VMC block
    QMC counter        = 5
    time step          = 0.5
    reference energy   = -17.086
    reference variance = 0.548238
====================================================
  Execution time = 1.1542e+01
</vmc>
<opt stage="setup">
  <log>
   Reading configurations from h5FileRoot H2O_DFT_BFD.s020
  QMCCostFunction is created with 8 threads.
  Using Nonlocal PP in Opt: no
   Number of samples loaded to each thread : 20000 20000 20000 20000 20000 20000 20000 20000 
  VMC Eavg = -1.7168e+01
  VMC Evar = 3.7432e+00
  Total weights = 1.6000e+05
  Execution time = 1.2309e+01
  </log>
</opt>
<opt stage="main" walkers="160000">
  <log>

*****************************************
Building overlap and Hamiltonian matrices
*****************************************

Among totally 164 optimized parameters, largest LM parameter change : 5.6661e-02 at parameter 55

******************************************************************************
Init Cost =  -1.5077e+01    New Cost =  -1.5083e+01  Delta Cost =  -5.6313e-03
******************************************************************************

The new set of parameters is valid. Updating the trial wave function!

*****************************************************************************
Applying the update for shift_i =   1.0000e-02     and shift_s =   1.5625e-02
*****************************************************************************
  Execution time = 3.2194e+01
  </log>
  <optVariables href="H2O_DFT_BFD.s020.opt.xml">
  uu_0  2.393352e-01 1 1  ON 0
  uu_1  1.381006e-01 1 1  ON 1
  uu_2  6.207633e-02 1 1  ON 2
  uu_3  5.344815e-03 1 1  ON 3
  uu_4 -3.802563e-02 1 1  ON 4
  uu_5 -7.363079e-02 1 1  ON 5
  uu_6 -1.002480e-01 1 1  ON 6
  uu_7 -1.151056e-01 1 1  ON 7
  uu_8 -1.189166e-01 1 1  ON 8
  uu_9 -1.203309e-01 1 1  ON 9
 uu_10 -1.154742e-01 1 1  ON 10
 uu_11 -9.341022e-02 1 1  ON 11
 uu_12 -5.948356e-02 1 1  ON 12
 uu_13 -1.498310e-02 1 1  ON 13
 uu_14  5.082093e-02 1 1  ON 14
 uu_15  8.008383e-02 1 1  ON 15
 uu_16  9.894873e-02 1 1  ON 16
 uu_17  9.432487e-02 1 1  ON 17
 uu_18  4.726208e-02 1 1  ON 18
 uu_19  2.427736e-02 1 1  ON 19
  ud_0  5.040724e-01 1 1  ON 20
  ud_1  3.091740e-01 1 1  ON 21
  ud_2  1.693769e-01 1 1  ON 22
  ud_3  7.377071e-02 1 1  ON 23
  ud_4  1.688973e-02 1 1  ON 24
  ud_5 -2.175373e-02 1 1  ON 25
  ud_6 -5.341527e-02 1 1  ON 26
  ud_7 -8.350422e-02 1 1  ON 27
  ud_8 -1.134671e-01 1 1  ON 28
  ud_9 -1.344005e-01 1 1  ON 29
 ud_10 -1.507712e-01 1 1  ON 30
 ud_11 -1.549342e-01 1 1  ON 31
 ud_12 -1.475990e-01 1 1  ON 32
 ud_13 -1.341572e-01 1 1  ON 33
 ud_14 -9.772323e-02 1 1  ON 34
 ud_15 -4.561228e-02 1 1  ON 35
 ud_16 -4.449801e-03 1 1  ON 36
 ud_17  2.703279e-02 1 1  ON 37
 ud_18  2.925600e-02 1 1  ON 38
 ud_19  1.708392e-02 1 1  ON 39
  eH_0 -3.190758e-01 1 1  ON 40
  eH_1 -1.393360e-01 1 1  ON 41
  eH_2 -1.716945e-01 1 1  ON 42
  eH_3 -1.440749e-01 1 1  ON 43
  eH_4 -1.303804e-01 1 1  ON 44
  eH_5 -1.218294e-01 1 1  ON 45
  eH_6 -9.425334e-02 1 1  ON 46
  eH_7 -7.147455e-02 1 1  ON 47
  eH_8 -4.315145e-02 1 1  ON 48
  eH_9 -1.759132e-02 1 1  ON 49
  eO_0 -1.100795e+00 1 1  ON 50
  eO_1 -9.045994e-01 1 1  ON 51
  eO_2  2.860507e-02 1 1  ON 52
  eO_3  3.565324e-01 1 1  ON 53
  eO_4  5.145490e-01 1 1  ON 54
  eO_5  5.322162e-01 1 1  ON 55
  eO_6  4.890966e-01 1 1  ON 56
  eO_7  1.239828e-01 1 1  ON 57
  eO_8 -3.642897e-02 1 1  ON 58
  eO_9 -2.310056e-03 1 1  ON 59
 uuH_0 -1.233825e-02 1 1  ON 60
 uuH_1 -6.073170e-03 1 1  ON 61
 uuH_2  4.290414e-03 1 1  ON 62
 uuH_3  8.843287e-03 1 1  ON 63
 uuH_4  2.895669e-03 1 1  ON 64
 uuH_5  1.767991e-04 1 1  ON 65
 uuH_6 -2.210119e-03 1 1  ON 66
 uuH_7  4.189169e-03 1 1  ON 67
 uuH_8 -1.647031e-02 1 1  ON 68
 uuH_9  1.564278e-02 1 1  ON 69
uuH_10  7.619719e-03 1 1  ON 70
uuH_11  1.442164e-02 1 1  ON 71
uuH_12  4.094050e-03 1 1  ON 72
uuH_13 -2.348434e-02 1 1  ON 73
uuH_14 -5.871829e-03 1 1  ON 74
uuH_15  2.409030e-04 1 1  ON 75
uuH_16 -3.640743e-02 1 1  ON 76
uuH_17 -1.310125e-02 1 1  ON 77
uuH_18 -2.068771e-02 1 1  ON 78
uuH_19  4.496953e-03 1 1  ON 79
uuH_20  2.950031e-02 1 1  ON 80
uuH_21  3.286997e-04 1 1  ON 81
uuH_22 -3.049782e-04 1 1  ON 82
uuH_23 -1.496571e-02 1 1  ON 83
uuH_24  3.554078e-03 1 1  ON 84
uuH_25 -9.701806e-04 1 1  ON 85
 udH_0 -1.820614e-02 1 1  ON 86
 udH_1  3.979943e-04 1 1  ON 87
 udH_2  3.173141e-02 1 1  ON 88
 udH_3  6.143309e-03 1 1  ON 89
 udH_4 -7.181066e-03 1 1  ON 90
 udH_5  3.687601e-05 1 1  ON 91
 udH_6  2.670517e-02 1 1  ON 92
 udH_7 -2.088449e-03 1 1  ON 93
 udH_8  1.576583e-02 1 1  ON 94
 udH_9 -9.782178e-04 1 1  ON 95
udH_10  3.190370e-03 1 1  ON 96
udH_11 -3.664774e-03 1 1  ON 97
udH_12 -8.754643e-03 1 1  ON 98
udH_13 -2.072137e-02 1 1  ON 99
udH_14 -5.513437e-03 1 1  ON 100
udH_15  2.569355e-03 1 1  ON 101
udH_16  1.247215e-02 1 1  ON 102
udH_17 -3.268493e-02 1 1  ON 103
udH_18 -7.222677e-03 1 1  ON 104
udH_19  1.251925e-02 1 1  ON 105
udH_20  1.045802e-02 1 1  ON 106
udH_21  7.704336e-03 1 1  ON 107
udH_22 -4.465580e-03 1 1  ON 108
udH_23 -4.994992e-03 1 1  ON 109
udH_24 -3.402593e-03 1 1  ON 110
udH_25  1.561399e-03 1 1  ON 111
 uuO_0  8.088726e-03 1 1  ON 112
 uuO_1 -1.388363e-03 1 1  ON 113
 uuO_2 -2.169474e-02 1 1  ON 114
 uuO_3 -6.677433e-04 1 1  ON 115
 uuO_4  1.073416e-02 1 1  ON 116
 uuO_5  3.971562e-04 1 1  ON 117
 uuO_6 -1.649608e-02 1 1  ON 118
 uuO_7 -7.541123e-03 1 1  ON 119
 uuO_8 -3.445144e-02 1 1  ON 120
 uuO_9  5.421094e-03 1 1  ON 121
uuO_10  2.859055e-03 1 1  ON 122
uuO_11  2.018691e-02 1 1  ON 123
uuO_12  1.937187e-02 1 1  ON 124
uuO_13  7.472465e-04 1 1  ON 125
uuO_14 -1.238822e-02 1 1  ON 126
uuO_15 -1.396560e-03 1 1  ON 127
uuO_16 -9.790812e-04 1 1  ON 128
uuO_17 -3.297370e-03 1 1  ON 129
uuO_18  1.371305e-03 1 1  ON 130
uuO_19 -1.836666e-02 1 1  ON 131
uuO_20 -7.078278e-03 1 1  ON 132
uuO_21 -1.237682e-03 1 1  ON 133
uuO_22  4.999379e-03 1 1  ON 134
uuO_23  9.365557e-03 1 1  ON 135
uuO_24 -1.935392e-04 1 1  ON 136
uuO_25 -1.725506e-03 1 1  ON 137
 udO_0 -9.306728e-03 1 1  ON 138
 udO_1 -2.138679e-03 1 1  ON 139
 udO_2  2.661154e-02 1 1  ON 140
 udO_3  1.005550e-02 1 1  ON 141
 udO_4  1.777300e-03 1 1  ON 142
 udO_5  7.667822e-04 1 1  ON 143
 udO_6  3.473237e-03 1 1  ON 144
 udO_7  2.044368e-02 1 1  ON 145
 udO_8  2.993893e-02 1 1  ON 146
 udO_9  4.677485e-03 1 1  ON 147
udO_10  1.863897e-02 1 1  ON 148
udO_11 -6.358963e-02 1 1  ON 149
udO_12 -4.424561e-03 1 1  ON 150
udO_13 -2.392773e-02 1 1  ON 151
udO_14  4.697430e-03 1 1  ON 152
udO_15  1.955598e-04 1 1  ON 153
udO_16 -9.634280e-04 1 1  ON 154
udO_17 -6.174903e-02 1 1  ON 155
udO_18  1.091594e-01 1 1  ON 156
udO_19 -1.566889e-02 1 1  ON 157
udO_20  1.666526e-02 1 1  ON 158
udO_21 -2.948471e-02 1 1  ON 159
udO_22  7.602009e-03 1 1  ON 160
udO_23 -7.279900e-03 1 1  ON 161
udO_24  1.192861e-02 1 1  ON 162
udO_25 -4.118694e-03 1 1  ON 163
  </optVariables>
   Restore the number of walkers to 8, removing 0 walkers.
</opt>
</optimization-report>
  QMC Execution time = 32.21 secs
  Reusing QMCFixedSampleLinearOptimize
 Using QMCCostFunction::QMCCostFunction
 Using Default Cost Function: Cost = <|E-E_ff|^2>

=========================================================
  Start QMCFixedSampleLinearOptimize
  File Root H2O_DFT_BFD.s021 append = no 
=========================================================
  Skip QMCDriver::putQMCInfo 
  Resetting Properties of the walkers 1 x 14

=========================================================
  Start VMC
  File Root H2O_DFT_BFD.s021 append = no 
=========================================================
Using existing walkers 
  Resetting Properties of the walkers 1 x 14

<vmc function="put">
  qmc_counter=1  my_counter=5
  time step      = 5.0000e-01
  blocks         = 80
  steps          = 334
  substeps       = 5
  current        = 0
  target samples = 1.6000e+05
  walkers/mpi    = 8

  stepsbetweensamples = 1
<parameter name="blocks" condition="int">80</parameter>
<parameter name="blocks_between_recompute" condition="int">0</parameter>
<parameter name="check_properties" condition="int">100</parameter>
<parameter name="checkproperties" condition="int">100</parameter>
<parameter name="current" condition="int">0</parameter>
<parameter name="dmcwalkersperthread" condition="real">2.0000e+04</parameter>
<parameter name="maxcpusecs" condition="real">3.6000e+05</parameter>
<parameter name="record_configs" condition="int">0</parameter>
<parameter name="record_walkers" condition="int">1</parameter>
<parameter name="recordconfigs" condition="int">0</parameter>
<parameter name="recordwalkers" condition="int">1</parameter>
<parameter name="rewind" condition="int">0</parameter>
<parameter name="samples" condition="real">1.6000e+05</parameter>
<parameter name="samplesperthread" condition="real">2.0000e+04</parameter>
<parameter name="steps" condition="int">334</parameter>
<parameter name="stepsbetweensamples" condition="int">1</parameter>
<parameter name="store_configs" condition="int">0</parameter>
<parameter name="storeconfigs" condition="int">0</parameter>
<parameter name="sub_steps" condition="int">5</parameter>
<parameter name="substeps" condition="int">5</parameter>
<parameter name="tau" condition="au">5.0000e-01</parameter>
<parameter name="time_step" condition="au">5.0000e-01</parameter>
<parameter name="timestep" condition="au">5.0000e-01</parameter>
[...]
<parameter name="record_configs" condition="int">0</parameter>
<parameter name="record_walkers" condition="int">1</parameter>
<parameter name="recordconfigs" condition="int">0</parameter>
<parameter name="recordwalkers" condition="int">1</parameter>
<parameter name="rewind" condition="int">0</parameter>
<parameter name="samples" condition="real">1.6000e+05</parameter>
<parameter name="samplesperthread" condition="real">2.0000e+04</parameter>
<parameter name="steps" condition="int">334</parameter>
<parameter name="stepsbetweensamples" condition="int">1</parameter>
<parameter name="store_configs" condition="int">0</parameter>
<parameter name="storeconfigs" condition="int">0</parameter>
<parameter name="sub_steps" condition="int">5</parameter>
<parameter name="substeps" condition="int">5</parameter>
<parameter name="tau" condition="au">5.0000e-01</parameter>
<parameter name="time_step" condition="au">5.0000e-01</parameter>
<parameter name="timestep" condition="au">5.0000e-01</parameter>
<parameter name="use_drift" condition="string">no</parameter>
<parameter name="usedrift" condition="string">no</parameter>
<parameter name="walkers" condition="int">1</parameter>
<parameter name="warmup_steps" condition="int">5</parameter>
<parameter name="warmupsteps" condition="int">5</parameter>
  DumpConfig==false Nothing (configurations, state) will be saved.
  Walker Samples are dumped every 1 steps.
</vmc>
  Set drift_modifier UNR parameter a = 1.0000e+00
  EstimatorManagerBase::add replace LocalEnergy estimator.
  Set drift_modifier UNR parameter a = 1.0000e+00
  EstimatorManagerBase::add replace LocalEnergy estimator.
<optimization-report>
<vmc stage="main" blocks="80">
  Cannot make clones again. Use existing 8 clones
  Initial partition of walkers 0 1 2 3 4 5 6 7 8 
  Using Particle by Particle moves
  Walker moves without drift
  Total Sample Size   =160000
  Walker distribution on root = 0 1 2 3 4 5 6 7 8 
  Using Locality Approximation
===== Memory Usage after the buffer registration =====
Available memory on node 0, free + buffers : 16760 MB
Memory footprint by rank 0 on node 0       : 877 MB
==================================================
====================================================
  SimpleFixedNodeBranch::finalize after a VMC block
    QMC counter        = 13
    time step          = 0.5
    reference energy   = -17.2743
    reference variance = 0.0280891
====================================================
  Execution time = 1.2145e+01
</vmc>
<opt stage="setup">
  <log>
   Reading configurations from h5FileRoot H2O_DFT_BFD.s028
  QMCCostFunction is created with 8 threads.
  Using Nonlocal PP in Opt: no
   Number of samples loaded to each thread : 20000 20000 20000 20000 20000 20000 20000 20000 
  VMC Eavg = -1.7175e+01
  VMC Evar = 4.3399e+00
  Total weights = 1.6000e+05
  Execution time = 1.2238e+01
  </log>
</opt>
<opt stage="main" walkers="160000">
  <log>

*****************************************
Building overlap and Hamiltonian matrices
*****************************************

Among totally 164 optimized parameters, largest LM parameter change : 2.8323e-02 at parameter 34

******************************************************************************
Init Cost =  -1.5023e+01    New Cost =  -1.5028e+01  Delta Cost =  -5.0090e-03
******************************************************************************

The new set of parameters is valid. Updating the trial wave function!

*****************************************************************************
Applying the update for shift_i =   1.0000e-02     and shift_s =   3.9062e-03
*****************************************************************************
  Execution time = 3.3089e+01
  </log>
  <optVariables href="H2O_DFT_BFD.s028.opt.xml">
  uu_0  2.369437e-01 1 1  ON 0
  uu_1  1.314020e-01 1 1  ON 1
  uu_2  5.840427e-02 1 1  ON 2
  uu_3  6.467653e-03 1 1  ON 3
  uu_4 -3.299026e-02 1 1  ON 4
  uu_5 -6.766010e-02 1 1  ON 5
  uu_6 -9.389581e-02 1 1  ON 6
  uu_7 -1.074255e-01 1 1  ON 7
  uu_8 -1.141612e-01 1 1  ON 8
  uu_9 -1.154486e-01 1 1  ON 9
 uu_10 -1.070791e-01 1 1  ON 10
 uu_11 -1.014192e-01 1 1  ON 11
 uu_12 -7.907360e-02 1 1  ON 12
 uu_13 -3.719083e-02 1 1  ON 13
 uu_14  1.258380e-02 1 1  ON 14
 uu_15  5.991723e-02 1 1  ON 15
 uu_16  1.004762e-01 1 1  ON 16
 uu_17  1.213702e-01 1 1  ON 17
 uu_18  7.514300e-02 1 1  ON 18
 uu_19  3.780347e-02 1 1  ON 19
  ud_0  5.207254e-01 1 1  ON 20
  ud_1  3.225224e-01 1 1  ON 21
  ud_2  1.827847e-01 1 1  ON 22
  ud_3  8.809620e-02 1 1  ON 23
  ud_4  3.058204e-02 1 1  ON 24
  ud_5 -8.371937e-03 1 1  ON 25
  ud_6 -4.085749e-02 1 1  ON 26
  ud_7 -7.333341e-02 1 1  ON 27
  ud_8 -1.060351e-01 1 1  ON 28
  ud_9 -1.330585e-01 1 1  ON 29
 ud_10 -1.500306e-01 1 1  ON 30
 ud_11 -1.563945e-01 1 1  ON 31
 ud_12 -1.638502e-01 1 1  ON 32
 ud_13 -1.509954e-01 1 1  ON 33
 ud_14 -1.086617e-01 1 1  ON 34
 ud_15 -8.816884e-02 1 1  ON 35
 ud_16 -3.035566e-02 1 1  ON 36
 ud_17  2.215455e-02 1 1  ON 37
 ud_18  3.576671e-02 1 1  ON 38
 ud_19  1.313233e-02 1 1  ON 39
  eH_0 -3.165172e-01 1 1  ON 40
  eH_1 -1.188114e-01 1 1  ON 41
  eH_2 -1.433321e-01 1 1  ON 42
  eH_3 -1.217198e-01 1 1  ON 43
  eH_4 -1.096786e-01 1 1  ON 44
  eH_5 -1.012244e-01 1 1  ON 45
  eH_6 -7.410070e-02 1 1  ON 46
  eH_7 -5.148456e-02 1 1  ON 47
  eH_8 -2.629013e-02 1 1  ON 48
  eH_9 -8.959224e-03 1 1  ON 49
  eO_0 -1.203276e+00 1 1  ON 50
  eO_1 -9.917634e-01 1 1  ON 51
  eO_2 -4.464168e-02 1 1  ON 52
  eO_3  3.180406e-01 1 1  ON 53
  eO_4  4.961182e-01 1 1  ON 54
  eO_5  6.349439e-01 1 1  ON 55
  eO_6  5.641900e-01 1 1  ON 56
  eO_7  2.538291e-01 1 1  ON 57
  eO_8 -2.009246e-02 1 1  ON 58
  eO_9 -5.427080e-03 1 1  ON 59
 uuH_0 -1.481601e-02 1 1  ON 60
 uuH_1 -1.100039e-02 1 1  ON 61
 uuH_2 -7.037969e-03 1 1  ON 62
 uuH_3  1.032346e-02 1 1  ON 63
 uuH_4  4.909958e-03 1 1  ON 64
 uuH_5  1.472824e-04 1 1  ON 65
 uuH_6 -1.941126e-02 1 1  ON 66
 uuH_7  6.590312e-03 1 1  ON 67
 uuH_8 -2.871671e-02 1 1  ON 68
 uuH_9  3.576120e-02 1 1  ON 69
uuH_10  7.375911e-03 1 1  ON 70
uuH_11  2.513135e-02 1 1  ON 71
uuH_12  5.026022e-03 1 1  ON 72
uuH_13 -3.493104e-02 1 1  ON 73
uuH_14 -5.592249e-03 1 1  ON 74
uuH_15 -6.371919e-06 1 1  ON 75
uuH_16 -7.497920e-02 1 1  ON 76
uuH_17 -1.278173e-02 1 1  ON 77
uuH_18 -1.458055e-02 1 1  ON 78
uuH_19  2.262923e-03 1 1  ON 79
uuH_20  4.668108e-02 1 1  ON 80
uuH_21 -8.075899e-03 1 1  ON 81
uuH_22  1.979754e-03 1 1  ON 82
uuH_23 -2.113663e-02 1 1  ON 83
uuH_24  8.567766e-03 1 1  ON 84
uuH_25 -2.404365e-03 1 1  ON 85
 udH_0 -1.424974e-02 1 1  ON 86
 udH_1 -3.825372e-03 1 1  ON 87
 udH_2  1.405792e-02 1 1  ON 88
 udH_3  8.776217e-03 1 1  ON 89
 udH_4 -2.646825e-05 1 1  ON 90
 udH_5  3.578867e-04 1 1  ON 91
 udH_6  7.097826e-03 1 1  ON 92
 udH_7 -1.584301e-03 1 1  ON 93
 udH_8 -1.318230e-02 1 1  ON 94
 udH_9  1.007825e-02 1 1  ON 95
udH_10  7.791576e-03 1 1  ON 96
udH_11  1.374314e-02 1 1  ON 97
udH_12  7.035416e-04 1 1  ON 98
udH_13 -2.982331e-02 1 1  ON 99
udH_14 -1.127953e-02 1 1  ON 100
udH_15  2.112711e-03 1 1  ON 101
udH_16 -9.603253e-03 1 1  ON 102
udH_17 -3.669232e-02 1 1  ON 103
udH_18 -2.019095e-02 1 1  ON 104
udH_19  1.221539e-02 1 1  ON 105
udH_20  2.342692e-02 1 1  ON 106
udH_21  7.416719e-03 1 1  ON 107
udH_22 -4.706758e-03 1 1  ON 108
udH_23 -1.111743e-02 1 1  ON 109
udH_24 -8.959661e-04 1 1  ON 110
udH_25  1.273583e-03 1 1  ON 111
 uuO_0  7.711092e-03 1 1  ON 112
 uuO_1 -6.879157e-04 1 1  ON 113
 uuO_2 -1.959452e-02 1 1  ON 114
 uuO_3 -1.037985e-03 1 1  ON 115
 uuO_4  8.962491e-03 1 1  ON 116
 uuO_5  4.430753e-04 1 1  ON 117
 uuO_6 -1.273230e-02 1 1  ON 118
 uuO_7 -7.332620e-03 1 1  ON 119
 uuO_8 -3.437047e-02 1 1  ON 120
 uuO_9  3.199360e-03 1 1  ON 121
uuO_10  1.511515e-03 1 1  ON 122
uuO_11  1.860185e-02 1 1  ON 123
uuO_12  1.988576e-02 1 1  ON 124
uuO_13 -8.286161e-04 1 1  ON 125
uuO_14 -1.448009e-02 1 1  ON 126
uuO_15 -1.202640e-03 1 1  ON 127
uuO_16  7.910928e-03 1 1  ON 128
uuO_17 -1.336059e-02 1 1  ON 129
uuO_18  6.970771e-03 1 1  ON 130
uuO_19 -2.012394e-02 1 1  ON 131
uuO_20 -8.161975e-03 1 1  ON 132
uuO_21 -6.007527e-04 1 1  ON 133
uuO_22  5.130107e-03 1 1  ON 134
uuO_23  9.448032e-03 1 1  ON 135
uuO_24 -6.003381e-04 1 1  ON 136
uuO_25 -1.735955e-03 1 1  ON 137
 udO_0 -8.229198e-03 1 1  ON 138
 udO_1  3.196619e-03 1 1  ON 139
 udO_2  3.555831e-02 1 1  ON 140
 udO_3  5.915097e-03 1 1  ON 141
 udO_4 -5.412692e-03 1 1  ON 142
 udO_5  6.433642e-04 1 1  ON 143
 udO_6  2.403656e-02 1 1  ON 144
 udO_7  7.606886e-03 1 1  ON 145
 udO_8  4.709752e-02 1 1  ON 146
 udO_9 -1.176244e-02 1 1  ON 147
udO_10  1.016552e-02 1 1  ON 148
udO_11 -6.124638e-02 1 1  ON 149
udO_12 -1.462585e-02 1 1  ON 150
udO_13 -1.060250e-02 1 1  ON 151
udO_14  8.519171e-03 1 1  ON 152
udO_15  1.250625e-03 1 1  ON 153
udO_16  3.735073e-02 1 1  ON 154
udO_17 -5.104756e-02 1 1  ON 155
udO_18  9.773474e-02 1 1  ON 156
udO_19 -7.159851e-03 1 1  ON 157
udO_20 -5.149430e-03 1 1  ON 158
udO_21 -2.358337e-02 1 1  ON 159
udO_22  5.035094e-03 1 1  ON 160
udO_23  3.475469e-03 1 1  ON 161
udO_24  7.634904e-03 1 1  ON 162
udO_25 -2.785068e-03 1 1  ON 163
  </optVariables>
   Restore the number of walkers to 8, removing 0 walkers.
</opt>
</optimization-report>
  QMC Execution time = 33.11 secs
  Reusing QMCFixedSampleLinearOptimize
 Using QMCCostFunction::QMCCostFunction
 Using Default Cost Function: Cost = <|E-E_ff|^2>

=========================================================
  Start QMCFixedSampleLinearOptimize
  File Root H2O_DFT_BFD.s029 append = no 
=========================================================
  Skip QMCDriver::putQMCInfo 
  Resetting Properties of the walkers 1 x 14

=========================================================
  Start VMC
  File Root H2O_DFT_BFD.s029 append = no 
=========================================================
Using existing walkers 
  Resetting Properties of the walkers 1 x 14

<vmc function="put">
  qmc_counter=9  my_counter=13
  time step      = 5.0000e-01
  blocks         = 80
  steps          = 334
  substeps       = 5
  current        = 0
  target samples = 1.6000e+05
  walkers/mpi    = 8

  stepsbetweensamples = 1
<parameter name="blocks" condition="int">80</parameter>
<parameter name="blocks_between_recompute" condition="int">0</parameter>
<parameter name="check_properties" condition="int">100</parameter>
<parameter name="checkproperties" condition="int">100</parameter>
<parameter name="current" condition="int">0</parameter>
<parameter name="dmcwalkersperthread" condition="real">2.0000e+04</parameter>
<parameter name="maxcpusecs" condition="real">3.6000e+05</parameter>
<parameter name="record_configs" condition="int">0</parameter>
<parameter name="record_walkers" condition="int">1</parameter>
<parameter name="recordconfigs" condition="int">0</parameter>
<parameter name="recordwalkers" condition="int">1</parameter>
<parameter name="rewind" condition="int">0</parameter>
<parameter name="samples" condition="real">1.6000e+05</parameter>
<parameter name="samplesperthread" condition="real">2.0000e+04</parameter>
<parameter name="steps" condition="int">334</parameter>
<parameter name="stepsbetweensamples" condition="int">1</parameter>
<parameter name="store_configs" condition="int">0</parameter>
<parameter name="storeconfigs" condition="int">0</parameter>
<parameter name="sub_steps" condition="int">5</parameter>
<parameter name="substeps" condition="int">5</parameter>
<parameter name="tau" condition="au">5.0000e-01</parameter>
<parameter name="time_step" condition="au">5.0000e-01</parameter>
<parameter name="timestep" condition="au">5.0000e-01</parameter>
<parameter name="use_drift" condition="string">no</parameter>
<parameter name="usedrift" condition="string">no</parameter>
<parameter name="walkers" condition="int">1</parameter>
<parameter name="warmup_steps" condition="int">5</parameter>
<parameter name="warmupsteps" condition="int">5</parameter>
  DumpConfig==false Nothing (configurations, state) will be saved.
  Walker Samples are dumped every 1 steps.
</vmc>
  Set drift_modifier UNR parameter a = 1.0000e+00
  EstimatorManagerBase::add replace LocalEnergy estimator.
  Set drift_modifier UNR parameter a = 1.0000e+00
  EstimatorManagerBase::add replace LocalEnergy estimator.
<optimization-report>
<vmc stage="main" blocks="80">
  Cannot make clones again. Use existing 8 clones
  Initial partition of walkers 0 1 2 3 4 5 6 7 8 
  Using Particle by Particle moves
  Walker moves without drift
  Total Sample Size   =160000
  Walker distribution on root = 0 1 2 3 4 5 6 7 8 
  Using Locality Approximation
===== Memory Usage after the buffer registration =====
Available memory on node 0, free + buffers : 16706 MB
Memory footprint by rank 0 on node 0       : 877 MB
==================================================
====================================================
  SimpleFixedNodeBranch::finalize after a VMC block
    QMC counter        = 14
    time step          = 0.5
    reference energy   = -17.4429
    reference variance = 0.258289
====================================================
  Execution time = 1.1925e+01
</vmc>
<opt stage="setup">
  <log>
   Reading configurations from h5FileRoot H2O_DFT_BFD.s029
  QMCCostFunction is created with 8 threads.
  Using Nonlocal PP in Opt: no
   Number of samples loaded to each thread : 20000 20000 20000 20000 20000 20000 20000 20000 
  VMC Eavg = -1.7172e+01
  VMC Evar = 5.0724e+00
  Total weights = 1.6000e+05
  Execution time = 1.2780e+01
  </log>
</opt>
<opt stage="main" walkers="160000">
  <log>

*****************************************
Building overlap and Hamiltonian matrices
*****************************************

Among totally 164 optimized parameters, largest LM parameter change : 3.1183e-02 at parameter 32

******************************************************************************
Init Cost =  -1.4948e+01    New Cost =  -1.4969e+01  Delta Cost =  -2.1448e-02
******************************************************************************

The new set of parameters is valid. Updating the trial wave function!

*****************************************************************************
Applying the update for shift_i =   1.0000e-02     and shift_s =   3.9062e-03
*****************************************************************************
  Execution time = 3.3135e+01
  </log>
  <optVariables href="H2O_DFT_BFD.s029.opt.xml">
  uu_0  2.320223e-01 1 1  ON 0
  uu_1  1.288073e-01 1 1  ON 1
  uu_2  5.509403e-02 1 1  ON 2
  uu_3  1.924166e-03 1 1  ON 3
  uu_4 -3.803085e-02 1 1  ON 4
  uu_5 -7.327982e-02 1 1  ON 5
  uu_6 -1.011129e-01 1 1  ON 6
  uu_7 -1.143706e-01 1 1  ON 7
  uu_8 -1.199931e-01 1 1  ON 8
  uu_9 -1.185914e-01 1 1  ON 9
 uu_10 -1.063776e-01 1 1  ON 10
 uu_11 -9.415134e-02 1 1  ON 11
 uu_12 -7.399586e-02 1 1  ON 12
 uu_13 -3.374829e-02 1 1  ON 13
 uu_14  1.697385e-02 1 1  ON 14
 uu_15  6.797876e-02 1 1  ON 15
 uu_16  1.102702e-01 1 1  ON 16
 uu_17  1.252323e-01 1 1  ON 17
 uu_18  7.937641e-02 1 1  ON 18
 uu_19  3.931862e-02 1 1  ON 19
  ud_0  5.015779e-01 1 1  ON 20
  ud_1  3.074797e-01 1 1  ON 21
  ud_2  1.731452e-01 1 1  ON 22
  ud_3  8.225516e-02 1 1  ON 23
  ud_4  2.538255e-02 1 1  ON 24
  ud_5 -1.380010e-02 1 1  ON 25
  ud_6 -4.563213e-02 1 1  ON 26
  ud_7 -7.509824e-02 1 1  ON 27
  ud_8 -1.022910e-01 1 1  ON 28
  ud_9 -1.214942e-01 1 1  ON 29
 ud_10 -1.384236e-01 1 1  ON 30
 ud_11 -1.404214e-01 1 1  ON 31
 ud_12 -1.326673e-01 1 1  ON 32
 ud_13 -1.345214e-01 1 1  ON 33
 ud_14 -1.087580e-01 1 1  ON 34
 ud_15 -9.518040e-02 1 1  ON 35
 ud_16 -4.303713e-02 1 1  ON 36
 ud_17  1.643111e-02 1 1  ON 37
 ud_18  3.417480e-02 1 1  ON 38
 ud_19  1.525893e-02 1 1  ON 39
  eH_0 -2.998991e-01 1 1  ON 40
  eH_1 -1.031880e-01 1 1  ON 41
  eH_2 -1.243293e-01 1 1  ON 42
  eH_3 -1.001924e-01 1 1  ON 43
  eH_4 -8.857944e-02 1 1  ON 44
  eH_5 -7.946062e-02 1 1  ON 45
  eH_6 -5.696089e-02 1 1  ON 46
  eH_7 -4.001975e-02 1 1  ON 47
  eH_8 -2.146364e-02 1 1  ON 48
  eH_9 -6.731652e-05 1 1  ON 49
  eO_0 -1.203987e+00 1 1  ON 50
  eO_1 -9.772986e-01 1 1  ON 51
  eO_2 -4.267607e-02 1 1  ON 52
  eO_3  3.012806e-01 1 1  ON 53
  eO_4  4.791013e-01 1 1  ON 54
  eO_5  6.141424e-01 1 1  ON 55
  eO_6  5.904817e-01 1 1  ON 56
  eO_7  2.628259e-01 1 1  ON 57
  eO_8 -1.660227e-02 1 1  ON 58
  eO_9 -5.333097e-03 1 1  ON 59
 uuH_0 -1.658075e-02 1 1  ON 60
 uuH_1 -1.473928e-02 1 1  ON 61
 uuH_2 -6.177257e-03 1 1  ON 62
 uuH_3  1.382653e-02 1 1  ON 63
 uuH_4  6.714548e-03 1 1  ON 64
 uuH_5  5.567729e-04 1 1  ON 65
 uuH_6 -2.498779e-02 1 1  ON 66
 uuH_7  9.004448e-03 1 1  ON 67
 uuH_8 -3.293177e-02 1 1  ON 68
 uuH_9  3.846644e-02 1 1  ON 69
uuH_10  1.203455e-02 1 1  ON 70
uuH_11  2.475074e-02 1 1  ON 71
uuH_12  8.231381e-03 1 1  ON 72
uuH_13 -3.566060e-02 1 1  ON 73
uuH_14 -7.806472e-03 1 1  ON 74
uuH_15 -1.482756e-04 1 1  ON 75
uuH_16 -7.815997e-02 1 1  ON 76
uuH_17 -1.428594e-02 1 1  ON 77
uuH_18 -1.946974e-02 1 1  ON 78
uuH_19  2.863531e-04 1 1  ON 79
uuH_20  4.445835e-02 1 1  ON 80
uuH_21 -3.612835e-03 1 1  ON 81
uuH_22  1.750328e-03 1 1  ON 82
uuH_23 -1.858545e-02 1 1  ON 83
uuH_24  5.225234e-03 1 1  ON 84
uuH_25 -1.825472e-03 1 1  ON 85
 udH_0 -1.536391e-02 1 1  ON 86
 udH_1 -3.310465e-03 1 1  ON 87
 udH_2  1.323309e-02 1 1  ON 88
 udH_3  7.240682e-03 1 1  ON 89
 udH_4 -2.630870e-03 1 1  ON 90
 udH_5  2.322603e-04 1 1  ON 91
 udH_6  1.144768e-02 1 1  ON 92
 udH_7 -8.005715e-03 1 1  ON 93
 udH_8 -1.138580e-02 1 1  ON 94
 udH_9  1.060789e-02 1 1  ON 95
udH_10  2.643881e-03 1 1  ON 96
udH_11  1.980474e-02 1 1  ON 97
udH_12 -1.191537e-03 1 1  ON 98
udH_13 -2.768868e-02 1 1  ON 99
udH_14 -1.201693e-02 1 1  ON 100
udH_15  2.532689e-03 1 1  ON 101
udH_16 -5.790143e-03 1 1  ON 102
udH_17 -3.474151e-02 1 1  ON 103
udH_18 -1.821864e-02 1 1  ON 104
udH_19  1.025087e-02 1 1  ON 105
udH_20  1.893455e-02 1 1  ON 106
udH_21  7.606434e-03 1 1  ON 107
udH_22 -4.202925e-03 1 1  ON 108
udH_23 -7.761743e-03 1 1  ON 109
udH_24 -1.866352e-03 1 1  ON 110
udH_25  1.318235e-03 1 1  ON 111
 uuO_0  8.559021e-03 1 1  ON 112
 uuO_1 -7.882417e-04 1 1  ON 113
 uuO_2 -2.285863e-02 1 1  ON 114
 uuO_3 -1.264830e-03 1 1  ON 115
 uuO_4  1.146787e-02 1 1  ON 116
 uuO_5  3.963060e-04 1 1  ON 117
 uuO_6 -1.567214e-02 1 1  ON 118
 uuO_7 -8.762290e-03 1 1  ON 119
 uuO_8 -4.017653e-02 1 1  ON 120
 uuO_9  5.226384e-03 1 1  ON 121
uuO_10  2.349073e-03 1 1  ON 122
uuO_11  2.255466e-02 1 1  ON 123
uuO_12  2.427722e-02 1 1  ON 124
uuO_13 -1.819384e-03 1 1  ON 125
uuO_14 -1.815694e-02 1 1  ON 126
uuO_15 -1.221465e-03 1 1  ON 127
uuO_16 -4.009471e-05 1 1  ON 128
uuO_17 -1.370885e-02 1 1  ON 129
uuO_18  6.546798e-03 1 1  ON 130
uuO_19 -2.462367e-02 1 1  ON 131
uuO_20 -2.083030e-03 1 1  ON 132
uuO_21 -1.008482e-03 1 1  ON 133
uuO_22  5.955319e-03 1 1  ON 134
uuO_23  4.044290e-03 1 1  ON 135
uuO_24  1.419103e-03 1 1  ON 136
uuO_25 -2.255085e-03 1 1  ON 137
 udO_0 -1.247161e-02 1 1  ON 138
 udO_1  1.745526e-03 1 1  ON 139
 udO_2  4.099013e-02 1 1  ON 140
 udO_3  8.378561e-03 1 1  ON 141
 udO_4 -6.273204e-03 1 1  ON 142
 udO_5  6.366434e-04 1 1  ON 143
 udO_6  2.559027e-02 1 1  ON 144
 udO_7  5.661223e-03 1 1  ON 145
 udO_8  4.861043e-02 1 1  ON 146
 udO_9 -8.316205e-03 1 1  ON 147
udO_10  1.273093e-02 1 1  ON 148
udO_11 -6.123222e-02 1 1  ON 149
udO_12 -1.680035e-02 1 1  ON 150
udO_13 -1.538575e-02 1 1  ON 151
udO_14  8.060974e-03 1 1  ON 152
udO_15  1.796702e-03 1 1  ON 153
udO_16  3.058698e-02 1 1  ON 154
udO_17 -5.698467e-02 1 1  ON 155
udO_18  9.829023e-02 1 1  ON 156
udO_19 -3.012370e-03 1 1  ON 157
udO_20 -1.300111e-03 1 1  ON 158
udO_21 -2.447470e-02 1 1  ON 159
udO_22  3.956497e-03 1 1  ON 160
udO_23  3.061925e-03 1 1  ON 161
udO_24  8.131873e-03 1 1  ON 162
udO_25 -2.476960e-03 1 1  ON 163
  </optVariables>
   Restore the number of walkers to 8, removing 0 walkers.
</opt>
</optimization-report>
  QMC Execution time = 33.16 secs
  Total Execution time = 395.3 secs

=========================================================
  A new xml input file : H2O_DFT_BFD.s029.cont.xml
