  Input file(s): vmc.in.xml 

=====================================================
                    QMCPACK 3.7.9

       (c) Copyright 2003-  QMCPACK developers

                    Please cite:
 J. Kim et al. J. Phys. Cond. Mat. 30 195901 (2018)
      https://doi.org/10.1088/1361-648X/aab9c3

  Git branch: develop
  Last git commit: ff48df3b90b681c02190f8d49e805336cf82019f
  Last git commit date: Mon Apr 1 14:00:47 2019 -0500
  Last git commit subject: Merge pull request #1528 from QMCPACK/prckent-patch-1
=====================================================
  Global options 

  Total number of MPI ranks = 16
  Number of MPI groups      = 1
  MPI group ID              = 0
  Number of ranks in group  = 16
  MPI ranks per node        = 16
  OMP 1st level threads     = 1
  OMP nested threading disabled or only 1 thread on the 2nd level

  Precision used in this calculation, see definitions in the manual:
  Base precision      = double
  Full precision      = double

  Structure-of-arrays (SoA) optimization enabled

  Input XML = vmc.in.xml

  Project = vmc
  date    = 2019-05-08 13:12:44 EDT
  host    = viribus

 Random Number
 -------------
  Offset for the random number seeds based on time: 524

  Range of prime numbers to use as seeds over processors and threads = 3779-3917


 Lattice
 -------
  Lattice is not specified for the Open BC. Add a huge box.
  Simulation cell radius   = 50000.000000 bohr
  Wigner-Seitz cell radius = 50000.000000 bohr

 Particle Set 
 ------------
  Name: ion0
  Initializing the lattice by the global supercell
  All the species have the same mass 1.000000
  Particle set size: 3

 Particle Set 
 ------------
  Name: e
  Initializing the lattice by the global supercell
  All the species have the same mass 1.000000
  Particle set size: 10

 Wavefunction setup: 
 ------------------- 
  Name: psi0
  LCAO: SoaAtomicBasisSet<MultiQuintic,1>

  Distance table for similar particles (A-A):
    source/target: e
    Using structure-of-arrays (SoA) data layout
    Distance computations use open boundary conditions in 3D.


  Distance table for dissimilar particles (A-B):
    source: ion0  target: e
    Using structure-of-arrays (SoA) data layout
    Distance computations use open boundary conditions in 3D.

Reading BasisSet from HDF5 file:../hf/scf.h5
<input node="atomicBasisSet" name="ccpvtz" expandYlm="pyscf" angular="spherical" elementType="O" normalized="no" type="Numerical" expM="0" />
  AO BasisSet for O
   Spherical Harmonics contain (-1)^m factor
   Angular momentum m expanded as -l, ... ,l, with the exception of L=1 (1,-1,0)
   Grid is created by the input paremters in h5
    Using log grid ri = 0.000001 rf = 100.000000 npts = 1001
   R(n,l,m,s) 0 0 0 0
   R(n,l,m,s) 1 0 0 0
   R(n,l,m,s) 2 0 0 0
   R(n,l,m,s) 3 0 0 0
   R(n,l,m,s) 4 1 0 0
   R(n,l,m,s) 5 1 0 0
   R(n,l,m,s) 6 1 0 0
   R(n,l,m,s) 7 2 0 0
   R(n,l,m,s) 8 2 0 0
   R(n,l,m,s) 9 3 0 0
Expanding Ylm as L=1 as (1,-1,0) and L>1 as -l,-l+1,...,l-1,l
   Adding 1 spherical orbitals
   Adding 1 spherical orbitals
   Adding 1 spherical orbitals
   Adding 1 spherical orbitals
   Adding 3 spherical orbitals
   Adding 3 spherical orbitals
   Adding 3 spherical orbitals
   Adding 5 spherical orbitals
   Adding 5 spherical orbitals
   Adding 7 spherical orbitals
  Setting cutoff radius 7.726806

   Maximum Angular Momentum  = 3
   Number of Radial functors = 10
   Basis size                = 30

<input node="atomicBasisSet" name="ccpvtz" expandYlm="pyscf" angular="spherical" elementType="H" normalized="no" type="Numerical" expM="0" />
  AO BasisSet for H
   Spherical Harmonics contain (-1)^m factor
   Angular momentum m expanded as -l, ... ,l, with the exception of L=1 (1,-1,0)
   Grid is created by the input paremters in h5
    Using log grid ri = 0.000001 rf = 100.000000 npts = 1001
   R(n,l,m,s) 0 0 0 0
   R(n,l,m,s) 1 0 0 0
   R(n,l,m,s) 2 0 0 0
   R(n,l,m,s) 3 1 0 0
   R(n,l,m,s) 4 1 0 0
   R(n,l,m,s) 5 2 0 0
Expanding Ylm as L=1 as (1,-1,0) and L>1 as -l,-l+1,...,l-1,l
   Adding 1 spherical orbitals
   Adding 1 spherical orbitals
   Adding 1 spherical orbitals
   Adding 3 spherical orbitals
   Adding 3 spherical orbitals
   Adding 5 spherical orbitals
  Setting cutoff radius 11.168632

   Maximum Angular Momentum  = 2
   Number of Radial functors = 6
   Basis size                = 14

  Created SPOSet builder named 'LCAOBSet' of type molecularorbital
Reuse SPOSetBuilder "LCAOBSet" type MolecularOrbital
  Building SPOSet '' with '' basis set.
Reading cusp info from : ../cuspcorr/updet.cuspInfo.xml
Found precomputed cusp data for spo set: updet
Reuse SPOSetBuilder "LCAOBSet" type MolecularOrbital
  Building SPOSet '' with '' basis set.
Reading cusp info from : ../cuspcorr/downdet.cuspInfo.xml
Found precomputed cusp data for spo set: downdet
  Creating a determinant updet group=0 sposet=updet
  Reusing a SPO set updet
Using DiracDeterminant with DelayedUpdate engine
Using rank-1 Sherman-Morrison Fahy update

  Creating a determinant downdet group=1 sposet=downdet
  Reusing a SPO set downdet
Using DiracDeterminant with DelayedUpdate engine
Using rank-1 Sherman-Morrison Fahy update

  FermionWF = SlaterDet
 size = 8 parameters 
 cusp = 0.000000
 rcut = 4.000000
Parameter     Name      Value
eH_0 -0.120408 1 1  ON 0
eH_1 -0.108793 1 1  ON 1
eH_2 -0.076137 1 1  ON 2
eH_3 -0.047146 1 1  ON 3
eH_4 -0.038860 1 1  ON 4
eH_5 -0.036443 1 1  ON 5
eH_6 -0.020518 1 1  ON 6
eH_7 -0.010279 1 1  ON 7
 size = 8 parameters 
 cusp = 0.000000
 rcut = 4.000000
Parameter     Name      Value
eO_0 -2.223116 1 1  ON 0
eO_1 -2.093312 1 1  ON 1
eO_2 -1.703517 1 1  ON 2
eO_3 -1.262164 1 1  ON 3
eO_4 -0.801242 1 1  ON 4
eO_5 -0.423321 1 1  ON 5
eO_6 -0.275581 1 1  ON 6
eO_7 -0.119601 1 1  ON 7
Parameter     Name      Value
uuH_0 -0.004534 1 1  ON 0
uuH_1 -0.000301 1 1  ON 1
uuH_2 0.015269 1 1  ON 2
uuH_3 0.002653 1 1  ON 3
uuH_4 -0.003758 1 1  ON 4
uuH_5 0.000236 1 1  ON 5
uuH_6 0.004948 1 1  ON 6
uuH_7 0.024977 1 1  ON 7
uuH_8 0.029368 1 1  ON 8
uuH_9 -0.003636 1 1  ON 9
uuH_10 0.003573 1 1  ON 10
uuH_11 -0.045445 1 1  ON 11
uuH_12 -0.008185 1 1  ON 12
uuH_13 -0.006415 1 1  ON 13
uuH_14 0.010495 1 1  ON 14
uuH_15 -0.000400 1 1  ON 15
uuH_16 0.009876 1 1  ON 16
uuH_17 -0.021497 1 1  ON 17
uuH_18 0.065681 1 1  ON 18
uuH_19 -0.007191 1 1  ON 19
uuH_20 0.004021 1 1  ON 20
uuH_21 -0.020232 1 1  ON 21
uuH_22 0.004998 1 1  ON 22
uuH_23 -0.003537 1 1  ON 23
uuH_24 0.007979 1 1  ON 24
uuH_25 -0.002683 1 1  ON 25
Parameter     Name      Value
udH_0 -0.000264 1 1  ON 0
udH_1 -0.000308 1 1  ON 1
udH_2 -0.000245 1 1  ON 2
udH_3 -0.001696 1 1  ON 3
udH_4 -0.001992 1 1  ON 4
udH_5 0.000223 1 1  ON 5
udH_6 -0.000517 1 1  ON 6
udH_7 -0.005043 1 1  ON 7
udH_8 0.005852 1 1  ON 8
udH_9 0.002290 1 1  ON 9
udH_10 -0.002533 1 1  ON 10
udH_11 0.002983 1 1  ON 11
udH_12 -0.008111 1 1  ON 12
udH_13 0.001409 1 1  ON 13
udH_14 0.005410 1 1  ON 14
udH_15 0.000618 1 1  ON 15
udH_16 -0.002093 1 1  ON 16
udH_17 0.008031 1 1  ON 17
udH_18 -0.001218 1 1  ON 18
udH_19 0.008497 1 1  ON 19
udH_20 -0.002291 1 1  ON 20
udH_21 -0.003679 1 1  ON 21
udH_22 -0.000832 1 1  ON 22
udH_23 0.002145 1 1  ON 23
udH_24 0.001007 1 1  ON 24
udH_25 -0.000052 1 1  ON 25
Parameter     Name      Value
uuO_0 0.000207 1 1  ON 0
uuO_1 0.003936 1 1  ON 1
uuO_2 0.001644 1 1  ON 2
uuO_3 -0.007776 1 1  ON 3
uuO_4 -0.006820 1 1  ON 4
uuO_5 0.000037 1 1  ON 5
uuO_6 0.004009 1 1  ON 6
uuO_7 -0.003796 1 1  ON 7
uuO_8 0.010949 1 1  ON 8
uuO_9 0.000271 1 1  ON 9
uuO_10 -0.010484 1 1  ON 10
uuO_11 0.015341 1 1  ON 11
uuO_12 -0.012660 1 1  ON 12
uuO_13 0.010404 1 1  ON 13
uuO_14 0.008854 1 1  ON 14
uuO_15 0.000690 1 1  ON 15
uuO_16 -0.014450 1 1  ON 16
uuO_17 0.035634 1 1  ON 17
uuO_18 -0.043514 1 1  ON 18
uuO_19 0.019592 1 1  ON 19
uuO_20 0.002497 1 1  ON 20
uuO_21 0.005634 1 1  ON 21
uuO_22 -0.004269 1 1  ON 22
uuO_23 -0.002128 1 1  ON 23
uuO_24 -0.000987 1 1  ON 24
uuO_25 0.001057 1 1  ON 25
Parameter     Name      Value
udO_0 -0.001155 1 1  ON 0
udO_1 -0.002829 1 1  ON 1
udO_2 0.003076 1 1  ON 2
udO_3 0.000337 1 1  ON 3
udO_4 -0.000292 1 1  ON 4
udO_5 0.000417 1 1  ON 5
udO_6 -0.008855 1 1  ON 6
udO_7 0.005122 1 1  ON 7
udO_8 0.007304 1 1  ON 8
udO_9 0.010421 1 1  ON 9
udO_10 0.002968 1 1  ON 10
udO_11 -0.014658 1 1  ON 11
udO_12 -0.004250 1 1  ON 12
udO_13 -0.008887 1 1  ON 13
udO_14 0.002101 1 1  ON 14
udO_15 0.000756 1 1  ON 15
udO_16 -0.010610 1 1  ON 16
udO_17 -0.018299 1 1  ON 17
udO_18 0.031202 1 1  ON 18
udO_19 -0.000861 1 1  ON 19
udO_20 0.010100 1 1  ON 20
udO_21 -0.008452 1 1  ON 21
udO_22 0.000911 1 1  ON 22
udO_23 -0.005698 1 1  ON 23
udO_24 0.003879 1 1  ON 24
udO_25 -0.000777 1 1  ON 25
  RadialJastrowBuilder adds a functor with cusp = -0.250000
 size = 14 parameters 
 cusp = -0.250000
 rcut = 7.000000
Parameter     Name      Value
uu_0 0.312000 1 1  ON 0
uu_1 0.237935 1 1  ON 1
uu_2 0.171184 1 1  ON 2
uu_3 0.122754 1 1  ON 3
uu_4 0.086729 1 1  ON 4
uu_5 0.060940 1 1  ON 5
uu_6 0.042818 1 1  ON 6
uu_7 0.026499 1 1  ON 7
uu_8 0.013284 1 1  ON 8
uu_9 0.004907 1 1  ON 9
uu_10 0.001756 1 1  ON 10
uu_11 0.002607 1 1  ON 11
uu_12 0.009249 1 1  ON 12
uu_13 0.013942 1 1  ON 13
  RadialJastrowBuilder adds a functor with cusp = -0.500000
 size = 14 parameters 
 cusp = -0.500000
 rcut = 7.000000
Parameter     Name      Value
ud_0 0.579280 1 1  ON 0
ud_1 0.417132 1 1  ON 1
ud_2 0.295188 1 1  ON 2
ud_3 0.214418 1 1  ON 3
ud_4 0.164759 1 1  ON 4
ud_5 0.135060 1 1  ON 5
ud_6 0.113263 1 1  ON 6
ud_7 0.089623 1 1  ON 7
ud_8 0.067922 1 1  ON 8
ud_9 0.051902 1 1  ON 9
ud_10 0.038056 1 1  ON 10
ud_11 0.027385 1 1  ON 11
ud_12 0.020282 1 1  ON 12
ud_13 0.017754 1 1  ON 13
  QMCHamiltonian::addOperator Kinetic to H, physical Hamiltonian 
  QMCHamiltonian::addOperator ElecElec to H, physical Hamiltonian 
QMCHamiltonian::addOperatorType added type coulomb named ElecElec

  Distance table for similar particles (A-A):
    source/target: ion0
    Using structure-of-arrays (SoA) data layout
    Distance computations use open boundary conditions in 3D.

  QMCHamiltonian::addOperator IonIon to H, physical Hamiltonian 
QMCHamiltonian::addOperatorType added type coulomb named IonIon
  QMCHamiltonian::addOperator ElecIon to H, physical Hamiltonian 
QMCHamiltonian::addOperatorType added type coulomb named ElecIon

  QMCHamiltonian::add2WalkerProperty added
    4 to P::PropertyList 
    0 to P::Collectables 
    starting Index of the observables in P::PropertyList = 9
ParticleSetPool::randomize 
<init source="ion0" target="e">
</init>
  Initialization Execution time = 0.0616 secs
=========================================================
 Summary of QMC systems 
=========================================================
ParticleSetPool has: 

  ParticleSet e : 0 5 10 

    10

    u  1.1138575267e-01 -4.0003244911e-01  3.0671722845e-01
    u  1.6834591640e-01  6.9552207214e-01 -3.9502636456e-01
    u -2.1831044173e-01 -4.2728981685e-01 -8.2811155567e-01
    u -2.4414230979e-01  6.7097746056e-01 -1.6731268606e-01
    u  4.3097617278e-01  7.8965137820e-01  6.5789724636e-01
    d  2.3950739402e-01  1.7036298889e-01  3.7531420747e-01
    d -1.9460917722e-02  1.3519159162e-01  4.2467013344e-01
    d  1.3711385815e-01 -5.9619051130e-01 -6.7307424878e-01
    d -1.5205949948e-01  2.3210345196e-01  3.8237667989e-01
    d -1.2347258432e-01 -1.4968788511e+00  1.7424638298e+00

  ParticleSet ion0 : 0 1 3 

    3

    O  0.0000000000e+00  0.0000000000e+00 -2.8616501000e-01
    H  0.0000000000e+00  1.1078708400e+00  1.1446600300e+00
    H  0.0000000000e+00 -1.1078708400e+00  1.1446600300e+00

  Hamiltonian h0
  Kinetic         Kinetic energy
  ElecElec        CoulombAA source/target e

  IonIon          CoulombAA source/target ion0

  ElecIon         CoulombAB source=ion0


=========================================================
  Start VMC
  File Root vmc.s000 append = no 
=========================================================
  Adding 1 walkers to 0 existing sets
  Total number of walkers: 1.6000000000e+01
  Total weight: 1.6000000000e+01
  Resetting Properties of the walkers 1 x 13

<vmc function="put">
  qmc_counter=0  my_counter=0
  time step      = 3.0000000000e-01
  blocks         = 800
  steps          = 100
  substeps       = 3
  current        = 0
  target samples = 0.0000000000e+00
  walkers/mpi    = 1

  stepsbetweensamples = 80100
<parameter name="blocks" condition="int">800</parameter>
<parameter name="blocks_between_recompute" condition="int">0</parameter>
<parameter name="check_properties" condition="int">100</parameter>
<parameter name="checkproperties" condition="int">100</parameter>
<parameter name="current" condition="int">0</parameter>
<parameter name="dmcwalkersperthread" condition="real">0.0000000000e+00</parameter>
<parameter name="maxcpusecs" condition="real">3.6000000000e+05</parameter>
<parameter name="record_configs" condition="int">0</parameter>
<parameter name="record_walkers" condition="int">80100</parameter>
<parameter name="recordconfigs" condition="int">0</parameter>
<parameter name="recordwalkers" condition="int">80100</parameter>
<parameter name="rewind" condition="int">0</parameter>
<parameter name="samples" condition="real">0.0000000000e+00</parameter>
<parameter name="samplesperthread" condition="real">0.0000000000e+00</parameter>
<parameter name="steps" condition="int">100</parameter>
<parameter name="stepsbetweensamples" condition="int">80100</parameter>
<parameter name="store_configs" condition="int">0</parameter>
<parameter name="storeconfigs" condition="int">0</parameter>
<parameter name="sub_steps" condition="int">3</parameter>
<parameter name="substeps" condition="int">3</parameter>
<parameter name="tau" condition="au">3.0000000000e-01</parameter>
<parameter name="time_step" condition="au">3.0000000000e-01</parameter>
<parameter name="timestep" condition="au">3.0000000000e-01</parameter>
<parameter name="use_drift" condition="string">yes</parameter>
<parameter name="usedrift" condition="string">yes</parameter>
<parameter name="walkers" condition="int">1</parameter>
<parameter name="warmup_steps" condition="int">50</parameter>
<parameter name="warmupsteps" condition="int">50</parameter>
  DumpConfig==false Nothing (configurations, state) will be saved.
  Walker Samples are dumped every 80100 steps.
</vmc>
  Adding a default LocalEnergyEstimator for the MainEstimator 
  Initial partition of walkers 0 1 

  Using Particle by Particle moves
  Walker moves with drift
  Total Sample Size   =0
  Walker distribution on root = 0 1 
===== Memory Usage after the buffer registration =====
Available memory on node 0, free + buffers : 23089 MB
Memory footprint by rank 0 on node 0       : 28 MB
==================================================
  Anonymous Buffer size per walker : 4352 Bytes.
MEMORY increase 0 MB VMC::resetRun
====================================================
  SimpleFixedNodeBranch::finalize after a VMC block
    QMC counter        = 0
    time step          = 0.3
    reference energy   = -76.1634
    reference variance = 1.89003
====================================================
  QMC Execution time = 1.0992e+02 secs
  Total Execution time = 1.0994e+02 secs

=========================================================
  A new xml input file : vmc.s000.cont.xml
