  Input file(s): optm.dmc.xml 

=====================================================
                    QMCPACK 3.7.9

       (c) Copyright 2003-  QMCPACK developers

                    Please cite:
 J. Kim et al. J. Phys. Cond. Mat. 30 195901 (2018)
      https://doi.org/10.1088/1361-648X/aab9c3

  Git branch: HEAD
  Last git commit: f95f17d2abb3cf3304553f3fd54aac3c712a1278
  Last git commit date: Thu May 9 13:52:50 2019 -0500
  Last git commit subject: Merge pull request #1591 from jtkrogel/nexus_workshop2
=====================================================
  Global options 

  Total number of MPI ranks = 1
  Number of MPI groups      = 1
  MPI group ID              = 0
  Number of ranks in group  = 1
  MPI ranks per node        = 1
  OMP 1st level threads     = 16
  OMP nested threading disabled or only 1 thread on the 2nd level

  Precision used in this calculation, see definitions in the manual:
  Base precision      = double
  Full precision      = double

  Structure-of-arrays (SoA) optimization enabled

  Input XML = optm.dmc.xml

  Project = C2
  date    = 2019-05-14 15:43:04 UTC
  host    = ip-172-31-0-115

 Random Number
 -------------
  Offset for the random number seeds from input file (mod 1024): 605

  Range of prime numbers to use as seeds over processors and threads = 4463-4603


 Particle Set 
 ------------
  Name: e
  All the species have the same mass 1
  Particle set size: 12

 Particle Set 
 ------------
  Name: ion0
  All the species have the same mass 1
  Particle set size: 2

 Wavefunction setup: 
 ------------------- 
  Name: psi0
  Created SPOSet builder named 'LCAOBSet' of type molecularorbital
  LCAO: SoaAtomicBasisSet<MultiQuintic,0>
  AO BasisSet for C
   Angular momentum expanded in cartesian functions x^lx y^ly z^lz according to Gamess
Using log grid with default values: ri = 1e-06 rf = 100 npts = 1001
   R(n,l,m,s) 0 0 0 0
   R(n,l,m,s) 1 0 0 0
   R(n,l,m,s) 2 0 0 0
   R(n,l,m,s) 3 0 0 0
   R(n,l,m,s) 4 0 0 0
   R(n,l,m,s) 5 1 0 0
   R(n,l,m,s) 6 1 0 0
   R(n,l,m,s) 7 1 0 0
   R(n,l,m,s) 8 1 0 0
   R(n,l,m,s) 9 2 0 0
   R(n,l,m,s) 10 2 0 0
   R(n,l,m,s) 11 2 0 0
   R(n,l,m,s) 12 3 0 0
   R(n,l,m,s) 13 3 0 0
   R(n,l,m,s) 14 4 0 0
   R(n,l,m,s) 15 0 0 0
   R(n,l,m,s) 16 0 0 0
   R(n,l,m,s) 17 0 0 0
   R(n,l,m,s) 18 1 0 0
   R(n,l,m,s) 19 1 0 0
   R(n,l,m,s) 20 1 0 0
   R(n,l,m,s) 21 2 0 0
   R(n,l,m,s) 22 2 0 0
   R(n,l,m,s) 23 3 0 0
Expanding Ylm (angular function) according to Gamess using cartesian gaussians
Adding 1 cartesian gaussian orbitals for l= 0
Adding 1 cartesian gaussian orbitals for l= 0
Adding 1 cartesian gaussian orbitals for l= 0
Adding 1 cartesian gaussian orbitals for l= 0
Adding 1 cartesian gaussian orbitals for l= 0
Adding 3 cartesian gaussian orbitals for l= 1
Adding 3 cartesian gaussian orbitals for l= 1
Adding 3 cartesian gaussian orbitals for l= 1
Adding 3 cartesian gaussian orbitals for l= 1
Adding 6 cartesian gaussian orbitals for l= 2
Adding 6 cartesian gaussian orbitals for l= 2
Adding 6 cartesian gaussian orbitals for l= 2
Adding 10 cartesian gaussian orbitals for l= 3
Adding 10 cartesian gaussian orbitals for l= 3
Adding 15 cartesian gaussian orbitals for l= 4
Adding 1 cartesian gaussian orbitals for l= 0
Adding 1 cartesian gaussian orbitals for l= 0
Adding 1 cartesian gaussian orbitals for l= 0
Adding 3 cartesian gaussian orbitals for l= 1
Adding 3 cartesian gaussian orbitals for l= 1
Adding 3 cartesian gaussian orbitals for l= 1
Adding 6 cartesian gaussian orbitals for l= 2
Adding 6 cartesian gaussian orbitals for l= 2
Adding 10 cartesian gaussian orbitals for l= 3
  Setting cutoff radius 10.7647

   Maximum Angular Momentum  = 4
   Number of Radial functors = 24
   Basis size                = 104

Creating SPOSet in SlaterDetBuilder::put(xmlNodePtr cur).
spo_name = spo-up
  Building SPOSet 'spo-up' with 'LCAOBSet' basis set.
Reading cusp info from : spo-up.cuspInfo.xml
Found precomputed cusp data for spo set: spo-up
Creating SPOSet in SlaterDetBuilder::put(xmlNodePtr cur).
spo_name = spo-dn
  Building SPOSet 'spo-dn' with 'LCAOBSet' basis set.
Reading cusp info from : spo-dn.cuspInfo.xml
Found precomputed cusp data for spo set: spo-dn
Using Bryan's algorithm for MultiSlaterDeterminant expansion. 
Creating base determinant (up) for MSD expansion. 
Creating base determinant (down) for MSD expansion. 
Found determinant list. 
Reading CSFs.
Found 18 terms in the MSD expansion.
Norm of ci vector (sum of ci^2): 0.875003
Norm of qchem ci vector (sum of qchem_ci^2): 0.876894
Found 10 unique up determinants.
Found 10 unique down determinants.
Number of terms in pairs array: 9
Number of terms in pairs array: 9
CI coefficients are optimizable. 
  FermionWF = MultiSlaterDeterminantFast

   Jastrow
   -------
    Name: J2   Type: Two-Body   Function: Bspline

    Radial function for species: u - u
     Number of parameters: 10
     Cusp: -0.25
     Cutoff radius: 10

     Name         Value Type Recompute Use Index
     ---- ------------- ---- --------- --- -----
     uu_0  8.025434e-02    1         1  ON     0
     uu_1  8.529669e-03    1         1  ON     1
     uu_2 -2.214104e-02    1         1  ON     2
     uu_3 -3.424608e-02    1         1  ON     3
     uu_4 -3.238202e-02    1         1  ON     4
     uu_5 -1.904109e-02    1         1  ON     5
     uu_6 -6.824586e-03    1         1  ON     6
     uu_7  2.118429e-03    1         1  ON     7
     uu_8  3.446132e-03    1         1  ON     8
     uu_9  1.093810e-02    1         1  ON     9

    Radial function for species: u - d
     Number of parameters: 10
     Cusp: -0.5
     Cutoff radius: 10

     Name         Value Type Recompute Use Index
     ---- ------------- ---- --------- --- -----
     ud_0  8.839076e-02    1         1  ON     0
     ud_1  2.662227e-02    1         1  ON     1
     ud_2 -2.504487e-02    1         1  ON     2
     ud_3 -3.215971e-02    1         1  ON     3
     ud_4 -3.013380e-02    1         1  ON     4
     ud_5 -1.596514e-02    1         1  ON     5
     ud_6 -4.212056e-03    1         1  ON     6
     ud_7  2.623970e-03    1         1  ON     7
     ud_8  6.038336e-03    1         1  ON     8
     ud_9 -3.426265e-03    1         1  ON     9


   Jastrow
   -------
    Name: J1   Type: One-Body   Function: Bspline

    Radial function for element: C
     Number of parameters: 10
     Cusp: 0
     Cutoff radius: 5

     Name         Value Type Recompute Use Index
     ---- ------------- ---- --------- --- -----
     eC_0 -2.833876e-01    1         1  ON     0
     eC_1 -1.740349e-01    1         1  ON     1
     eC_2 -1.114697e-01    1         1  ON     2
     eC_3 -4.500676e-02    1         1  ON     3
     eC_4  8.069498e-03    1         1  ON     4
     eC_5  4.391769e-02    1         1  ON     5
     eC_6  6.567034e-02    1         1  ON     6
     eC_7  6.878596e-02    1         1  ON     7
     eC_8  5.511544e-02    1         1  ON     8
     eC_9  2.977942e-02    1         1  ON     9

  QMCHamiltonian::addOperator Kinetic to H, physical Hamiltonian 
  QMCHamiltonian::addOperator ElecElec to H, physical Hamiltonian 
QMCHamiltonian::addOperatorType added type coulomb named ElecElec
  QMCHamiltonian::addOperator IonElec to H, physical Hamiltonian 
QMCHamiltonian::addOperatorType added type coulomb named IonElec
  QMCHamiltonian::addOperator IonIon to H, physical Hamiltonian 
QMCHamiltonian::addOperatorType added type coulomb named IonIon

  QMCHamiltonian::add2WalkerProperty added
    4 to P::PropertyList 
    0 to P::Collectables 
    starting Index of the observables in P::PropertyList = 9
ParticleSetPool::randomize 
  Initialization Execution time = 0.07697 secs
=========================================================
 Summary of QMC systems 
=========================================================
ParticleSetPool has: 

  ParticleSet 'e' contains 12 particles :  u(6) d(6)

    u  0.0000000000e+00  0.0000000000e+00  1.1740061026e+00
    u  8.5155969553e-01 -4.6948434777e-03 -7.7786237374e-01
    u  8.6367010677e-02 -6.0278977942e-01 -1.8890522772e+00
    u  5.0287829115e-01 -5.7725716935e-01  1.7180588530e+00
    u  2.0442454133e-01 -6.1046719066e-01  1.8578527422e+00
    u -1.2126273539e-01  7.4127209210e-01  1.7378472549e+00
    d  4.6793044472e-01 -8.1142762779e-01 -1.1052157378e+00
    d  1.7658606042e-01 -8.4055829657e-01 -1.5539862651e+00
    d -3.9246516323e-01 -8.5017005107e-01 -1.1012889077e+00
    d  7.8741160153e-01 -4.9371968022e-01  1.3093931687e+00
    (... and 2 more particle positions ...)

  Distance table for similar particles (A-A):
    source/target: e
    Using structure-of-arrays (SoA) data layout
    Distance computations use open boundary conditions in 3D.

  Distance table for dissimilar particles (A-B):
    source: ion0  target: e
    Using structure-of-arrays (SoA) data layout
    Distance computations use open boundary conditions in 3D.


  ParticleSet 'ion0' contains 2 particles :  C(2)

    C  0.0000000000e+00  0.0000000000e+00 -1.1740061026e+00
    C  0.0000000000e+00  0.0000000000e+00  1.1740061026e+00

  Distance table for similar particles (A-A):
    source/target: ion0
    Using structure-of-arrays (SoA) data layout
    Distance computations use open boundary conditions in 3D.


  Hamiltonian h0
  Kinetic         Kinetic energy
  ElecElec        CoulombAA source/target e

  IonElec         CoulombAB source=ion0

  IonIon          CoulombAA source/target ion0


Loop execution max-interations = 15

=========================================================
  Start QMCFixedSampleLinearOptimize
  File Root C2.s000 append = no 
=========================================================
  Skip QMCDriver::putQMCInfo 
  Resetting Properties of the walkers 1 x 13
test version of OpenMP threading with AdaptiveThreeShift optimizer
  Adding 16 walkers to 0 existing sets
  Total number of walkers: 1.6000000000e+01
  Total weight: 1.6000000000e+01

=========================================================
  Start VMC
  File Root C2.s000 append = no 
=========================================================
  Using the current 16 walkers.
  Total number of walkers: 1.6000000000e+01
  Total weight: 1.6000000000e+01
  Resetting Properties of the walkers 1 x 13

<vmc function="put">
  qmc_counter=0  my_counter=0
  time step      = 5.0000000000e-01
  blocks         = 100
  steps          = 75
  substeps       = 10
  current        = 0
  target samples = 1.2000000000e+05
  walkers/mpi    = 16

  stepsbetweensamples = 1
<parameter name="blocks" condition="int">100</parameter>
<parameter name="blocks_between_recompute" condition="int">0</parameter>
<parameter name="check_properties" condition="int">100</parameter>
<parameter name="checkproperties" condition="int">100</parameter>
<parameter name="current" condition="int">0</parameter>
<parameter name="dmcwalkersperthread" condition="real">7.5000000000e+03</parameter>
<parameter name="maxcpusecs" condition="real">3.6000000000e+05</parameter>
<parameter name="record_configs" condition="int">0</parameter>
<parameter name="record_walkers" condition="int">1</parameter>
<parameter name="recordconfigs" condition="int">0</parameter>
<parameter name="recordwalkers" condition="int">1</parameter>
<parameter name="rewind" condition="int">0</parameter>
<parameter name="samples" condition="real">1.2000000000e+05</parameter>
<parameter name="samplesperthread" condition="real">7.5000000000e+03</parameter>
<parameter name="steps" condition="int">75</parameter>
<parameter name="stepsbetweensamples" condition="int">1</parameter>
<parameter name="store_configs" condition="int">0</parameter>
<parameter name="storeconfigs" condition="int">0</parameter>
<parameter name="sub_steps" condition="int">10</parameter>
<parameter name="substeps" condition="int">10</parameter>
<parameter name="tau" condition="au">5.0000000000e-01</parameter>
<parameter name="time_step" condition="au">5.0000000000e-01</parameter>
<parameter name="timestep" condition="au">5.0000000000e-01</parameter>
<parameter name="use_drift" condition="string">no</parameter>
<parameter name="usedrift" condition="string">no</parameter>
<parameter name="walkers" condition="int">16</parameter>
<parameter name="warmup_steps" condition="int">5000</parameter>
<parameter name="warmupsteps" condition="int">5000</parameter>
  DumpConfig==false Nothing (configurations, state) will be saved.
  Walker Samples are dumped every 1 steps.
</vmc>
  Set drift_modifier UNR parameter a = 1.0000000000e+00
 Using QMCCostFunction::QMCCostFunction
  Set drift_modifier UNR parameter a = 1.0000000000e+00
entering engine_start function
<optimization-report>
<vmc stage="main" blocks="100">
  CloneManager::makeClones makes 16 clones for W/Psi/H.
  Cloning methods for both Psi and H are used
===== Memory Usage before cloning =====
Available memory on node 0, free + buffers : 29276 MB
Memory footprint by rank 0 on node 0       : 65 MB
==================================================
===== Memory Usage after cloning =====
Available memory on node 0, free + buffers : 29276 MB
Memory footprint by rank 0 on node 0       : 69 MB
==================================================
  Initial partition of walkers 0 1 2 3 4 5 6 7 8 9 10 11 12 13 14 15 16 

  Using Particle by Particle moves
  Walker moves without drift
  Total Sample Size   =120000
  Walker distribution on root = 0 1 2 3 4 5 6 7 8 9 10 11 12 13 14 15 16 
===== Memory Usage after the buffer registration =====
Available memory on node 0, free + buffers : 29275 MB
Memory footprint by rank 0 on node 0       : 69 MB
==================================================
  Anonymous Buffer size per walker : 16040 Bytes.
MEMORY increase 0 MB VMC::resetRun
====================================================
  SimpleFixedNodeBranch::finalize after a VMC block
    QMC counter        = 0
    time step          = 0.5
    reference energy   = -75.8638
    reference variance = 1.89565
====================================================
  Execution time = 7.7202e+00
</vmc>
<opt stage="setup">
  <log>
     Reading configurations from h5FileRoot C2.s000
  QMCCostFunction is created with 16 threads.
  Using Nonlocal PP in Opt: NonLocalECP
   Number of samples loaded to each thread : 7500 7500 7500 7500 7500 7500 7500 7500 7500 7500 7500 7500 7500 7500 7500 7500 
  VMC Eavg = -7.5701e+01
  VMC Evar = 1.5655e+00
  Total weights = 1.2000e+05
  Execution time = 1.3484e+00
  </log>
</opt>
<opt stage="main" walkers="120000">
  <log>
energy and target function accumulation statistics:

  error estimate for blocks of size 2^( 1) =       0.003611938601
  error estimate for blocks of size 2^( 2) =       0.004141225286
  error estimate for blocks of size 2^( 3) =       0.004815418388
  error estimate for blocks of size 2^( 4) =       0.005548253570
  error estimate for blocks of size 2^( 5) =       0.006160061210
  error estimate for blocks of size 2^( 6) =       0.006626930796
  error estimate for blocks of size 2^( 7) =       0.006893952352
  error estimate for blocks of size 2^( 8) =       0.007016121165
  error estimate for blocks of size 2^( 9) =       0.007176535337
  error estimate for blocks of size 2^(10) =       0.007260025988

      target function =      -0.208313371958
              le_mean =     -75.701465206893
             les_mean =    5732.277353479137
             stat err =       0.007086658711
             autocorr =       3.849482214791
   target nu stat err =       0.007086658711
   target dn stat err =       0.062503314929
      target stat err =       0.000694166182
              std dev =       1.251212234114
             variance =       1.565532054796


*************************************************************************************************
Solving the linear method equations on the initial sample with initial energy-7.570146520689e+01 
*************************************************************************************************

shift_s 2.50e-01   vec 0   target =      -0.208376910214 +            -0.00 i    delta =   -0.000063223031
shift_s 1.00e+00   vec 0   target =      -0.208333245743 +             0.00 i    delta =   -0.000019558561
shift_s 4.00e+00   vec 0   target =      -0.208318893681 +             0.00 i    delta =   -0.000005206499
shift_s 2.50e-01   vec 0   target =      -0.208585590030 +             0.00 i    delta =   -0.000271902847
shift_s 1.00e+00   vec 0   target =      -0.208400182881 +             0.00 i    delta =   -0.000086495698
shift_s 4.00e+00   vec 0   target =      -0.208336905276 +             0.00 i    delta =   -0.000023218094
  Execution time = 9.1074e+00
  </log>
  <optVariables href="C2.s000.opt.xml">
CSFcoeff_1 -3.283060e-01 3 1 ON  0
CSFcoeff_2 -1.139196e-01 3 1 ON  1
CSFcoeff_3 -1.130893e-01 3 1 ON  2
CSFcoeff_4 -1.048768e-01 3 1 ON  3
CSFcoeff_5 1.056145e-01  3 1 ON  4
uu_0       8.025434e-02  1 1 ON  5
uu_1       8.529669e-03  1 1 ON  6
uu_2       -2.214104e-02 1 1 ON  7
uu_3       -3.424608e-02 1 1 ON  8
uu_4       -3.238202e-02 1 1 ON  9
uu_5       -1.904109e-02 1 1 ON  10
uu_6       -6.824586e-03 1 1 ON  11
uu_7       2.118429e-03  1 1 ON  12
uu_8       3.446132e-03  1 1 ON  13
uu_9       1.093810e-02  1 1 ON  14
ud_0       8.839076e-02  1 1 ON  15
ud_1       2.662227e-02  1 1 ON  16
ud_2       -2.504487e-02 1 1 ON  17
ud_3       -3.215971e-02 1 1 ON  18
ud_4       -3.013380e-02 1 1 ON  19
ud_5       -1.596514e-02 1 1 ON  20
ud_6       -4.212056e-03 1 1 ON  21
ud_7       2.623970e-03  1 1 ON  22
ud_8       6.038336e-03  1 1 ON  23
ud_9       -3.426265e-03 1 1 ON  24
eC_0       -2.833876e-01 1 1 ON  25
eC_1       -1.740349e-01 1 1 ON  26
eC_2       -1.114697e-01 1 1 ON  27
eC_3       -4.500676e-02 1 1 ON  28
eC_4       8.069498e-03  1 1 ON  29
eC_5       4.391769e-02  1 1 ON  30
eC_6       6.567034e-02  1 1 ON  31
eC_7       6.878596e-02  1 1 ON  32
eC_8       5.511544e-02  1 1 ON  33
eC_9       2.977942e-02  1 1 ON  34
  </optVariables>
   Restore the number of walkers to 16, removing 0 walkers.
</opt>
</optimization-report>
entering engine_start function
<optimization-report>
<vmc stage="main" blocks="100">
  Cannot make clones again. Use existing 16 clones
  Initial partition of walkers 0 1 2 3 4 5 6 7 8 9 10 11 12 13 14 15 16 
  Using Particle by Particle moves
  Walker moves without drift
  Total Sample Size   =120000
  Walker distribution on root = 0 1 2 3 4 5 6 7 8 9 10 11 12 13 14 15 16 
===== Memory Usage after the buffer registration =====
Available memory on node 0, free + buffers : 29040 MB
Memory footprint by rank 0 on node 0       : 315 MB
==================================================
====================================================
  SimpleFixedNodeBranch::finalize after a VMC block
    QMC counter        = 0
    time step          = 0.5
    reference energy   = -76.2332
    reference variance = 0.900155
====================================================
  Execution time = 4.657
</vmc>
<opt stage="setup">
  <log>
     Reading configurations from h5FileRoot C2.s000
  Using Nonlocal PP in Opt: NonLocalECP
   Number of samples loaded to each thread : 7500 7500 7500 7500 7500 7500 7500 7500 7500 7500 7500 7500 7500 7500 7500 7500 
calling setComputed function
  VMC Eavg = -75.7
  VMC Evar = 1.603
  Total weights = 1.2e+05
  Execution time = 1.199
  </log>
</opt>
<opt stage="main" walkers="120000">
  <log>

*********************************************************
Solving the linear method equations on the initial sample
*********************************************************

shift_s 2.50e-01   vec 0   target =      -0.208196408777 +             0.00 i    delta =    0.000116963181
shift_s 1.00e+00   vec 0   target =      -0.208056483374 +             0.00 i    delta =    0.000256888584
shift_s 4.00e+00   vec 0   target =      -0.208010156119 +             0.00 i    delta =    0.000303215839


************************************************************
Updating the guiding function with the middle shift's update
************************************************************

  Execution time = 5.856
  </log>
  <optVariables href="C2.s000.opt.xml">
CSFcoeff_1 -3.274977e-01 3 1 ON  0
CSFcoeff_2 -1.131979e-01 3 1 ON  1
CSFcoeff_3 -1.131722e-01 3 1 ON  2
CSFcoeff_4 -1.045544e-01 3 1 ON  3
CSFcoeff_5 1.051331e-01  3 1 ON  4
uu_0       8.065451e-02  1 1 ON  5
uu_1       8.472050e-03  1 1 ON  6
uu_2       -2.168844e-02 1 1 ON  7
uu_3       -3.428777e-02 1 1 ON  8
uu_4       -3.257653e-02 1 1 ON  9
uu_5       -1.837905e-02 1 1 ON  10
uu_6       -6.409055e-03 1 1 ON  11
uu_7       5.249784e-03  1 1 ON  12
uu_8       2.455442e-03  1 1 ON  13
uu_9       1.163059e-02  1 1 ON  14
ud_0       8.933816e-02  1 1 ON  15
ud_1       2.820091e-02  1 1 ON  16
ud_2       -2.466942e-02 1 1 ON  17
ud_3       -3.445103e-02 1 1 ON  18
ud_4       -3.478036e-02 1 1 ON  19
ud_5       -2.426266e-02 1 1 ON  20
ud_6       -1.235895e-02 1 1 ON  21
ud_7       -3.860839e-03 1 1 ON  22
ud_8       7.630798e-04  1 1 ON  23
ud_9       -7.230396e-03 1 1 ON  24
eC_0       -3.088432e-01 1 1 ON  25
eC_1       -1.996123e-01 1 1 ON  26
eC_2       -1.358060e-01 1 1 ON  27
eC_3       -6.813305e-02 1 1 ON  28
eC_4       -1.276764e-02 1 1 ON  29
eC_5       2.662498e-02  1 1 ON  30
eC_6       5.202821e-02  1 1 ON  31
eC_7       5.837153e-02  1 1 ON  32
eC_8       4.852193e-02  1 1 ON  33
eC_9       2.533067e-02  1 1 ON  34
  </optVariables>
   Restore the number of walkers to 16, removing 0 walkers.
</opt>
</optimization-report>

*************************************************************
Generating a new sample based on the updated guiding function
*************************************************************

<optimization-report>
<vmc stage="main" blocks="100">
  Cannot make clones again. Use existing 16 clones
  Initial partition of walkers 0 1 2 3 4 5 6 7 8 9 10 11 12 13 14 15 16 
  Using Particle by Particle moves
  Walker moves without drift
  Total Sample Size   =120000
  Walker distribution on root = 0 1 2 3 4 5 6 7 8 9 10 11 12 13 14 15 16 
===== Memory Usage after the buffer registration =====
Available memory on node 0, free + buffers : 29038 MB
Memory footprint by rank 0 on node 0       : 315 MB
==================================================
====================================================
  SimpleFixedNodeBranch::finalize after a VMC block
    QMC counter        = 0
    time step          = 0.5
    reference energy   = -75.6476
    reference variance = 1.20702
====================================================
  Execution time = 4.676
</vmc>
<opt stage="setup">
  <log>
   Reading configurations from h5FileRoot C2.s000
  Using Nonlocal PP in Opt: NonLocalECP
   Number of samples loaded to each thread : 7500 7500 7500 7500 7500 7500 7500 7500 7500 7500 7500 7500 7500 7500 7500 7500 
  VMC Eavg = -75.71
  VMC Evar = 1.588
  Total weights = 1.2e+05
  Execution time = 1.008
  </log>
</opt>
<opt stage="main" walkers="120000">
  <log>

******************************************************************
Comparing different shifts' cost function values on updated sample
******************************************************************

energy and target function accumulation statistics:

  error estimate for blocks of size 2^( 1) =       0.003642084375
  error estimate for blocks of size 2^( 2) =       0.004178013934
  error estimate for blocks of size 2^( 3) =       0.004827258470
  error estimate for blocks of size 2^( 4) =       0.005531181969
  error estimate for blocks of size 2^( 5) =       0.006131805605
  error estimate for blocks of size 2^( 6) =       0.006617901551
  error estimate for blocks of size 2^( 7) =       0.006865785098
  error estimate for blocks of size 2^( 8) =       0.007054276826
  error estimate for blocks of size 2^( 9) =       0.007091755767
  error estimate for blocks of size 2^(10) =       0.006933751481

      target function =      -0.208301166008
              le_mean =     -75.707590334108
             les_mean =    5733.230994363847
             stat err =       0.006986392293
             autocorr =       3.679645078195
   target nu stat err =       0.006986392294
   target dn stat err =       0.070464433136
      target stat err =       0.000762220607
              std dev =       1.261655036660
             variance =       1.591773431530

energy and target function accumulation statistics:

  error estimate for blocks of size 2^( 1) =       0.004013125729
  error estimate for blocks of size 2^( 2) =       0.004632944553
  error estimate for blocks of size 2^( 3) =       0.005343556619
  error estimate for blocks of size 2^( 4) =       0.006097709728
  error estimate for blocks of size 2^( 5) =       0.006699533629
  error estimate for blocks of size 2^( 6) =       0.007159000737
  error estimate for blocks of size 2^( 7) =       0.007430783450
  error estimate for blocks of size 2^( 8) =       0.007523507674
  error estimate for blocks of size 2^( 9) =       0.007587504519
  error estimate for blocks of size 2^(10) =       0.007558093499

      target function =      -0.201095041732
              le_mean =     -75.602199100803
             les_mean =    5717.625114146296
             stat err =       0.007524972285
             autocorr =       3.515962846536
   target nu stat err =       0.007524972285
   target dn stat err =       0.075968345277
      target stat err =       0.000753018916
              std dev =       1.390187531965
             variance =       1.932621374030

energy and target function accumulation statistics:

  error estimate for blocks of size 2^( 1) =       0.003635454766
  error estimate for blocks of size 2^( 2) =       0.004171253664
  error estimate for blocks of size 2^( 3) =       0.004820506137
  error estimate for blocks of size 2^( 4) =       0.005524058947
  error estimate for blocks of size 2^( 5) =       0.006127441617
  error estimate for blocks of size 2^( 6) =       0.006616668920
  error estimate for blocks of size 2^( 7) =       0.006865140812
  error estimate for blocks of size 2^( 8) =       0.007061862902
  error estimate for blocks of size 2^( 9) =       0.007096434709
  error estimate for blocks of size 2^(10) =       0.006935516968

      target function =      -0.208659446863
              le_mean =     -75.715138306665
             les_mean =    5734.368139343204
             stat err =       0.006989738848
             autocorr =       3.696616597878
   target nu stat err =       0.006989738848
   target dn stat err =       0.070670219930
      target stat err =       0.000767796597
              std dev =       1.259358472517
             variance =       1.585983762301

energy and target function accumulation statistics:

  error estimate for blocks of size 2^( 1) =       0.003641096930
  error estimate for blocks of size 2^( 2) =       0.004176935225
  error estimate for blocks of size 2^( 3) =       0.004826128210
  error estimate for blocks of size 2^( 4) =       0.005529984569
  error estimate for blocks of size 2^( 5) =       0.006130855677
  error estimate for blocks of size 2^( 6) =       0.006617248235
  error estimate for blocks of size 2^( 7) =       0.006865156737
  error estimate for blocks of size 2^( 8) =       0.007054462271
  error estimate for blocks of size 2^( 9) =       0.007091621836
  error estimate for blocks of size 2^(10) =       0.006933258638

      target function =      -0.208340411549
              le_mean =     -75.708362715048
             les_mean =    5733.347082157921
             stat err =       0.006986124871
             autocorr =       3.681359303993
   target nu stat err =       0.006986124871
   target dn stat err =       0.070478764569
      target stat err =       0.000762734997
              std dev =       1.261312975538
             variance =       1.590910422261


        shift_i        shift_s       max param change    cost function value
   ------------   ------------   --------------------   --------------------
            N/A            N/A                    N/A        -0.208301166008        initial
            N/A            N/A                    N/A                    N/A     bad update
     1.0000e-02     1.0000e+00             2.5577e-02        -0.208659446863  <--
     4.0000e-02     4.0000e+00             4.9760e-03        -0.208340411549

*****************************************************************************
Applying the update for shift_i =   1.0000e-02     and shift_s =   1.0000e+00
*****************************************************************************

  Execution time = 9.9396e+00
  </log>
  <optVariables href="C2.s000.opt.xml">
CSFcoeff_1 -3.274977e-01 3 1  ON 0
CSFcoeff_2 -1.131979e-01 3 1  ON 1
CSFcoeff_3 -1.131722e-01 3 1  ON 2
CSFcoeff_4 -1.045544e-01 3 1  ON 3
CSFcoeff_5  1.051331e-01 3 1  ON 4
      uu_0  8.065451e-02 1 1  ON 5
      uu_1  8.472050e-03 1 1  ON 6
      uu_2 -2.168844e-02 1 1  ON 7
      uu_3 -3.428777e-02 1 1  ON 8
      uu_4 -3.257653e-02 1 1  ON 9
      uu_5 -1.837905e-02 1 1  ON 10
      uu_6 -6.409055e-03 1 1  ON 11
      uu_7  5.249784e-03 1 1  ON 12
      uu_8  2.455442e-03 1 1  ON 13
      uu_9  1.163059e-02 1 1  ON 14
      ud_0  8.933816e-02 1 1  ON 15
      ud_1  2.820091e-02 1 1  ON 16
      ud_2 -2.466942e-02 1 1  ON 17
      ud_3 -3.445103e-02 1 1  ON 18
      ud_4 -3.478036e-02 1 1  ON 19
      ud_5 -2.426266e-02 1 1  ON 20
      ud_6 -1.235895e-02 1 1  ON 21
      ud_7 -3.860839e-03 1 1  ON 22
      ud_8  7.630798e-04 1 1  ON 23
      ud_9 -7.230396e-03 1 1  ON 24
      eC_0 -3.088432e-01 1 1  ON 25
      eC_1 -1.996123e-01 1 1  ON 26
      eC_2 -1.358060e-01 1 1  ON 27
      eC_3 -6.813305e-02 1 1  ON 28
      eC_4 -1.276764e-02 1 1  ON 29
      eC_5  2.662498e-02 1 1  ON 30
      eC_6  5.202821e-02 1 1  ON 31
      eC_7  5.837153e-02 1 1  ON 32
      eC_8  4.852193e-02 1 1  ON 33
      eC_9  2.533067e-02 1 1  ON 34
  </optVariables>
   Restore the number of walkers to 16, removing 0 walkers.
</opt>
</optimization-report>
  QMC Execution time = 24.91 secs
  Reusing QMCFixedSampleLinearOptimize
 Using QMCCostFunction::QMCCostFunction

=========================================================
  Start QMCFixedSampleLinearOptimize
  File Root C2.s001 append = no 
=========================================================
  Skip QMCDriver::putQMCInfo 
  Resetting Properties of the walkers 1 x 13
test version of OpenMP threading with AdaptiveThreeShift optimizer

=========================================================
  Start VMC
  File Root C2.s001 append = no 
=========================================================
Using existing walkers 
  Resetting Properties of the walkers 1 x 13

<vmc function="put">
  qmc_counter=1  my_counter=3
  time step      = 5.0000e-01
  blocks         = 100
  steps          = 75
  substeps       = 10
  current        = 0
  target samples = 1.2000e+05
  walkers/mpi    = 16

  stepsbetweensamples = 1
<parameter name="blocks" condition="int">100</parameter>
<parameter name="blocks_between_recompute" condition="int">0</parameter>
<parameter name="check_properties" condition="int">100</parameter>
<parameter name="checkproperties" condition="int">100</parameter>
<parameter name="current" condition="int">0</parameter>
<parameter name="dmcwalkersperthread" condition="real">7.5000e+03</parameter>
<parameter name="maxcpusecs" condition="real">3.6000e+05</parameter>
<parameter name="record_configs" condition="int">0</parameter>
<parameter name="record_walkers" condition="int">1</parameter>
<parameter name="recordconfigs" condition="int">0</parameter>
<parameter name="recordwalkers" condition="int">1</parameter>
<parameter name="rewind" condition="int">0</parameter>
<parameter name="samples" condition="real">1.2000e+05</parameter>
<parameter name="samplesperthread" condition="real">7.5000e+03</parameter>
<parameter name="steps" condition="int">75</parameter>
<parameter name="stepsbetweensamples" condition="int">1</parameter>
<parameter name="store_configs" condition="int">0</parameter>
<parameter name="storeconfigs" condition="int">0</parameter>
<parameter name="sub_steps" condition="int">10</parameter>
<parameter name="substeps" condition="int">10</parameter>
<parameter name="tau" condition="au">5.0000e-01</parameter>
<parameter name="time_step" condition="au">5.0000e-01</parameter>
<parameter name="timestep" condition="au">5.0000e-01</parameter>
<parameter name="use_drift" condition="string">no</parameter>
<parameter name="usedrift" condition="string">no</parameter>
<parameter name="walkers" condition="int">1</parameter>
<parameter name="warmup_steps" condition="int">5000</parameter>
<parameter name="warmupsteps" condition="int">5000</parameter>
  DumpConfig==false Nothing (configurations, state) will be saved.
  Walker Samples are dumped every 1 steps.
</vmc>
  Set drift_modifier UNR parameter a = 1.0000e+00
  EstimatorManagerBase::add replace LocalEnergy estimator.
  Set drift_modifier UNR parameter a = 1.0000e+00
  EstimatorManagerBase::add replace LocalEnergy estimator.
entering engine_start function
<optimization-report>
<vmc stage="main" blocks="100">
  Cannot make clones again. Use existing 16 clones
  Initial partition of walkers 0 1 2 3 4 5 6 7 8 9 10 11 12 13 14 15 16 
  Using Particle by Particle moves
  Walker moves without drift
  Total Sample Size   =120000
  Walker distribution on root = 0 1 2 3 4 5 6 7 8 9 10 11 12 13 14 15 16 
===== Memory Usage after the buffer registration =====
Available memory on node 0, free + buffers : 29038 MB
Memory footprint by rank 0 on node 0       : 321 MB
==================================================
====================================================
  SimpleFixedNodeBranch::finalize after a VMC block
    QMC counter        = 1
    time step          = 0.5
    reference energy   = -75.9424
    reference variance = 1.13087
====================================================
  Execution time = 7.6993e+00
</vmc>
<opt stage="setup">
  <log>
     Reading configurations from h5FileRoot C2.s001
  QMCCostFunction is created with 16 threads.
  Using Nonlocal PP in Opt: NonLocalECP
   Number of samples loaded to each thread : 7500 7500 7500 7500 7500 7500 7500 7500 7500 7500 7500 7500 7500 7500 7500 7500 
  VMC Eavg = -7.5716e+01
  VMC Evar = 1.6262e+00
  Total weights = 1.2000e+05
  Execution time = 1.3174e+00
  </log>
</opt>
<opt stage="main" walkers="120000">
  <log>
energy and target function accumulation statistics:

  error estimate for blocks of size 2^( 1) =       0.003681311161
  error estimate for blocks of size 2^( 2) =       0.004188937493
  error estimate for blocks of size 2^( 3) =       0.004828369823
  error estimate for blocks of size 2^( 4) =       0.005526680126
  error estimate for blocks of size 2^( 5) =       0.006160664222
  error estimate for blocks of size 2^( 6) =       0.006572725480
  error estimate for blocks of size 2^( 7) =       0.006883933580
  error estimate for blocks of size 2^( 8) =       0.006779195464
  error estimate for blocks of size 2^( 9) =       0.006933869380
  error estimate for blocks of size 2^(10) =       0.007197943054

      target function =      -0.208302027016
              le_mean =     -75.716112452428
             les_mean =    5734.555917580122
             stat err =       0.006948735369
             autocorr =       3.562923439739
   target nu stat err =       0.006948735370
   target dn stat err =       0.093092440078
      target stat err =       0.000967731444
              std dev =       1.275243593743
             variance =       1.626246223383


*************************************************************************************************
Solving the linear method equations on the initial sample with initial energy -7.571611245243e+01
*************************************************************************************************

shift_s 2.50e-01   vec 0   target =      -0.208498248834 +             0.00 i    delta =   -0.000193604973
shift_s 1.00e+00   vec 0   target =      -0.208365898078 +             0.00 i    delta =   -0.000061254217
shift_s 4.00e+00   vec 0   target =      -0.208321054544 +            -0.00 i    delta =   -0.000016410683
shift_s 2.50e-01   vec 0   target =      -0.208458847598 +             0.00 i    delta =   -0.000154203737
shift_s 1.00e+00   vec 0   target =      -0.208353416132 +             0.00 i    delta =   -0.000048772271
shift_s 4.00e+00   vec 0   target =      -0.208317712691 +             0.00 i    delta =   -0.000013068830
  Execution time = 9.0372e+00
  </log>
  <optVariables href="C2.s001.opt.xml">
CSFcoeff_1 -3.274977e-01 3 1  ON 0
CSFcoeff_2 -1.131979e-01 3 1  ON 1
CSFcoeff_3 -1.131722e-01 3 1  ON 2
CSFcoeff_4 -1.045544e-01 3 1  ON 3
CSFcoeff_5  1.051331e-01 3 1  ON 4
      uu_0  8.065451e-02 1 1  ON 5
      uu_1  8.472050e-03 1 1  ON 6
      uu_2 -2.168844e-02 1 1  ON 7
      uu_3 -3.428777e-02 1 1  ON 8
      uu_4 -3.257653e-02 1 1  ON 9
      uu_5 -1.837905e-02 1 1  ON 10
      uu_6 -6.409055e-03 1 1  ON 11
      uu_7  5.249784e-03 1 1  ON 12
      uu_8  2.455442e-03 1 1  ON 13
      uu_9  1.163059e-02 1 1  ON 14
      ud_0  8.933816e-02 1 1  ON 15
      ud_1  2.820091e-02 1 1  ON 16
      ud_2 -2.466942e-02 1 1  ON 17
      ud_3 -3.445103e-02 1 1  ON 18
      ud_4 -3.478036e-02 1 1  ON 19
      ud_5 -2.426266e-02 1 1  ON 20
      ud_6 -1.235895e-02 1 1  ON 21
      ud_7 -3.860839e-03 1 1  ON 22
      ud_8  7.630798e-04 1 1  ON 23
      ud_9 -7.230396e-03 1 1  ON 24
      eC_0 -3.088432e-01 1 1  ON 25
      eC_1 -1.996123e-01 1 1  ON 26
      eC_2 -1.358060e-01 1 1  ON 27
      eC_3 -6.813305e-02 1 1  ON 28
      eC_4 -1.276764e-02 1 1  ON 29
      eC_5  2.662498e-02 1 1  ON 30
      eC_6  5.202821e-02 1 1  ON 31
      eC_7  5.837153e-02 1 1  ON 32
      eC_8  4.852193e-02 1 1  ON 33
      eC_9  2.533067e-02 1 1  ON 34
  </optVariables>
   Restore the number of walkers to 16, removing 0 walkers.
</opt>
</optimization-report>
entering engine_start function
<optimization-report>
<vmc stage="main" blocks="100">
  Cannot make clones again. Use existing 16 clones
  Initial partition of walkers 0 1 2 3 4 5 6 7 8 9 10 11 12 13 14 15 16 
  Using Particle by Particle moves
  Walker moves without drift
  Total Sample Size   =120000
  Walker distribution on root = 0 1 2 3 4 5 6 7 8 9 10 11 12 13 14 15 16 
===== Memory Usage after the buffer registration =====
Available memory on node 0, free + buffers : 29038 MB
Memory footprint by rank 0 on node 0       : 322 MB
==================================================
====================================================
  SimpleFixedNodeBranch::finalize after a VMC block
    QMC counter        = 1
    time step          = 0.5
    reference energy   = -76.2698
    reference variance = 0.732535
====================================================
  Execution time = 4.689
</vmc>
<opt stage="setup">
  <log>
     Reading configurations from h5FileRoot C2.s001
  Using Nonlocal PP in Opt: NonLocalECP
   Number of samples loaded to each thread : 7500 7500 7500 7500 7500 7500 7500 7500 7500 7500 7500 7500 7500 7500 7500 7500 
calling setComputed function
  VMC Eavg = -75.73
  VMC Evar = 1.598
  Total weights = 1.2e+05
  Execution time = 1.197
  </log>
</opt>
<opt stage="main" walkers="120000">
  <log>

*********************************************************
Solving the linear method equations on the initial sample
*********************************************************

shift_s 2.50e-01   vec 0   target =      -0.209315111866 +             0.00 i    delta =   -0.001013084850
shift_s 1.00e+00   vec 0   target =      -0.209143797624 +             0.00 i    delta =   -0.000841770608
shift_s 4.00e+00   vec 0   target =      -0.209086220882 +             0.00 i    delta =   -0.000784193866


************************************************************
Updating the guiding function with the middle shift's update
************************************************************

  Execution time = 5.886
  </log>
  <optVariables href="C2.s001.opt.xml">
CSFcoeff_1 -3.271615e-01 3 1  ON 0
CSFcoeff_2 -1.108738e-01 3 1  ON 1
CSFcoeff_3 -1.109786e-01 3 1  ON 2
CSFcoeff_4 -1.053185e-01 3 1  ON 3
CSFcoeff_5  1.051553e-01 3 1  ON 4
      uu_0  8.547650e-02 1 1  ON 5
      uu_1  1.235814e-02 1 1  ON 6
      uu_2 -1.762868e-02 1 1  ON 7
      uu_3 -3.146386e-02 1 1  ON 8
      uu_4 -3.076238e-02 1 1  ON 9
      uu_5 -1.621810e-02 1 1  ON 10
      uu_6 -5.093046e-03 1 1  ON 11
      uu_7  1.044930e-02 1 1  ON 12
      uu_8  3.944859e-03 1 1  ON 13
      uu_9  1.676739e-02 1 1  ON 14
      ud_0  9.076987e-02 1 1  ON 15
      ud_1  3.005610e-02 1 1  ON 16
      ud_2 -2.516356e-02 1 1  ON 17
      ud_3 -3.735715e-02 1 1  ON 18
      ud_4 -4.104717e-02 1 1  ON 19
      ud_5 -3.419621e-02 1 1  ON 20
      ud_6 -2.181286e-02 1 1  ON 21
      ud_7 -1.355188e-02 1 1  ON 22
      ud_8 -5.483957e-03 1 1  ON 23
      ud_9 -1.369082e-02 1 1  ON 24
      eC_0 -3.399729e-01 1 1  ON 25
      eC_1 -2.302557e-01 1 1  ON 26
      eC_2 -1.650628e-01 1 1  ON 27
      eC_3 -9.581821e-02 1 1  ON 28
      eC_4 -3.722501e-02 1 1  ON 29
      eC_5  6.842984e-03 1 1  ON 30
      eC_6  3.735801e-02 1 1  ON 31
      eC_7  4.784051e-02 1 1  ON 32
      eC_8  4.230472e-02 1 1  ON 33
      eC_9  2.141348e-02 1 1  ON 34
  </optVariables>
   Restore the number of walkers to 16, removing 0 walkers.
</opt>
</optimization-report>

*************************************************************
Generating a new sample based on the updated guiding function
*************************************************************

<optimization-report>
<vmc stage="main" blocks="100">
  Cannot make clones again. Use existing 16 clones
  Initial partition of walkers 0 1 2 3 4 5 6 7 8 9 10 11 12 13 14 15 16 
  Using Particle by Particle moves
  Walker moves without drift
  Total Sample Size   =120000
  Walker distribution on root = 0 1 2 3 4 5 6 7 8 9 10 11 12 13 14 15 16 
===== Memory Usage after the buffer registration =====
Available memory on node 0, free + buffers : 29039 MB
Memory footprint by rank 0 on node 0       : 322 MB
==================================================
====================================================
  SimpleFixedNodeBranch::finalize after a VMC block
    QMC counter        = 1
    time step          = 0.5
    reference energy   = -75.5915
    reference variance = 1.52733
====================================================
  Execution time = 4.667
</vmc>
<opt stage="setup">
  <log>
   Reading configurations from h5FileRoot C2.s001
  Using Nonlocal PP in Opt: NonLocalECP
   Number of samples loaded to each thread : 7500 7500 7500 7500 7500 7500 7500 7500 7500 7500 7500 7500 7500 7500 7500 7500 
  VMC Eavg = -75.72
  VMC Evar = 1.539
  Total weights = 1.2e+05
  Execution time = 1.012
  </log>
</opt>
<opt stage="main" walkers="120000">
  <log>

******************************************************************
Comparing different shifts' cost function values on updated sample
******************************************************************

energy and target function accumulation statistics:

  error estimate for blocks of size 2^( 1) =       0.003586272640
  error estimate for blocks of size 2^( 2) =       0.004122892183
  error estimate for blocks of size 2^( 3) =       0.004778999395
  error estimate for blocks of size 2^( 4) =       0.005490737076
  error estimate for blocks of size 2^( 5) =       0.006110197454
  error estimate for blocks of size 2^( 6) =       0.006549937310
  error estimate for blocks of size 2^( 7) =       0.006760995302
  error estimate for blocks of size 2^( 8) =       0.006871843803
  error estimate for blocks of size 2^( 9) =       0.006790347861
  error estimate for blocks of size 2^(10) =       0.006820883908

      target function =      -0.209024347339
              le_mean =     -75.713771860982
             les_mean =    5734.118598729345
             stat err =       0.006811017718
             autocorr =       3.606927510079
   target nu stat err =       0.006811017718
   target dn stat err =       0.060147673766
      target stat err =       0.000673721876
              std dev =       1.242321284477
             variance =       1.543362173863

energy and target function accumulation statistics:

  error estimate for blocks of size 2^( 1) =       0.004494232902
  error estimate for blocks of size 2^( 2) =       0.005267207492
  error estimate for blocks of size 2^( 3) =       0.006093667112
  error estimate for blocks of size 2^( 4) =       0.006894480270
  error estimate for blocks of size 2^( 5) =       0.007559835748
  error estimate for blocks of size 2^( 6) =       0.008055751111
  error estimate for blocks of size 2^( 7) =       0.008276326577
  error estimate for blocks of size 2^( 8) =       0.008339451585
  error estimate for blocks of size 2^( 9) =       0.008382650188
  error estimate for blocks of size 2^(10) =       0.008505138732

      target function =      -0.193843271608
              le_mean =     -75.514016593280
             les_mean =    5704.790457377295
             stat err =       0.008375891770
             autocorr =       3.473369322325
   target nu stat err =       0.008375891770
   target dn stat err =       0.082143615393
      target stat err =       0.000752278931
              std dev =       1.556847945455
             variance =       2.423775525267

energy and target function accumulation statistics:

  error estimate for blocks of size 2^( 1) =       0.003578949171
  error estimate for blocks of size 2^( 2) =       0.004113197391
  error estimate for blocks of size 2^( 3) =       0.004768192913
  error estimate for blocks of size 2^( 4) =       0.005480413058
  error estimate for blocks of size 2^( 5) =       0.006101377796
  error estimate for blocks of size 2^( 6) =       0.006537131797
  error estimate for blocks of size 2^( 7) =       0.006748093769
  error estimate for blocks of size 2^( 8) =       0.006862785228
  error estimate for blocks of size 2^( 9) =       0.006778095726
  error estimate for blocks of size 2^(10) =       0.006797454203

      target function =      -0.209404972493
              le_mean =     -75.721665956793
             les_mean =    5735.307747723813
             stat err =       0.006796607231
             autocorr =       3.606394943426
   target nu stat err =       0.006796607232
   target dn stat err =       0.059996272738
      target stat err =       0.000675461087
              std dev =       1.239784360475
             variance =       1.537065260480

energy and target function accumulation statistics:

  error estimate for blocks of size 2^( 1) =       0.003585093103
  error estimate for blocks of size 2^( 2) =       0.004121401943
  error estimate for blocks of size 2^( 3) =       0.004777357987
  error estimate for blocks of size 2^( 4) =       0.005489132136
  error estimate for blocks of size 2^( 5) =       0.006108724813
  error estimate for blocks of size 2^( 6) =       0.006548067214
  error estimate for blocks of size 2^( 7) =       0.006759087879
  error estimate for blocks of size 2^( 8) =       0.006870307244
  error estimate for blocks of size 2^( 9) =       0.006788455753
  error estimate for blocks of size 2^(10) =       0.006817871613

      target function =      -0.209067420122
              le_mean =     -75.714593059857
             les_mean =    5734.241936473288
             stat err =       0.006808930622
             autocorr =       3.607089689841
   target nu stat err =       0.006808930622
   target dn stat err =       0.060125646343
      target stat err =       0.000673855119
              std dev =       1.241912680706
             variance =       1.542347106498


        shift_i        shift_s       max param change    cost function value
   ------------   ------------   --------------------   --------------------
            N/A            N/A                    N/A        -0.209024347339        initial
            N/A            N/A                    N/A                    N/A     bad update
     1.0000e-02     1.0000e+00             3.1130e-02        -0.209404972493  <--
     4.0000e-02     4.0000e+00             6.0622e-03        -0.209067420122

*****************************************************************************
Applying the update for shift_i =   1.0000e-02     and shift_s =   1.0000e+00
*****************************************************************************

  Execution time = 9.9431e+00
  </log>
  <optVariables href="C2.s001.opt.xml">
CSFcoeff_1 -3.271615e-01 3 1  ON 0
CSFcoeff_2 -1.108738e-01 3 1  ON 1
CSFcoeff_3 -1.109786e-01 3 1  ON 2
CSFcoeff_4 -1.053185e-01 3 1  ON 3
CSFcoeff_5  1.051553e-01 3 1  ON 4
      uu_0  8.547650e-02 1 1  ON 5
      uu_1  1.235814e-02 1 1  ON 6
      uu_2 -1.762868e-02 1 1  ON 7
      uu_3 -3.146386e-02 1 1  ON 8
      uu_4 -3.076238e-02 1 1  ON 9
      uu_5 -1.621810e-02 1 1  ON 10
      uu_6 -5.093046e-03 1 1  ON 11
      uu_7  1.044930e-02 1 1  ON 12
      uu_8  3.944859e-03 1 1  ON 13
      uu_9  1.676739e-02 1 1  ON 14
      ud_0  9.076987e-02 1 1  ON 15
      ud_1  3.005610e-02 1 1  ON 16
      ud_2 -2.516356e-02 1 1  ON 17
      ud_3 -3.735715e-02 1 1  ON 18
      ud_4 -4.104717e-02 1 1  ON 19
      ud_5 -3.419621e-02 1 1  ON 20
      ud_6 -2.181286e-02 1 1  ON 21
      ud_7 -1.355188e-02 1 1  ON 22
      ud_8 -5.483957e-03 1 1  ON 23
      ud_9 -1.369082e-02 1 1  ON 24
      eC_0 -3.399729e-01 1 1  ON 25
      eC_1 -2.302557e-01 1 1  ON 26
      eC_2 -1.650628e-01 1 1  ON 27
      eC_3 -9.581821e-02 1 1  ON 28
      eC_4 -3.722501e-02 1 1  ON 29
      eC_5  6.842984e-03 1 1  ON 30
      eC_6  3.735801e-02 1 1  ON 31
      eC_7  4.784051e-02 1 1  ON 32
      eC_8  4.230472e-02 1 1  ON 33
      eC_9  2.141348e-02 1 1  ON 34
  </optVariables>
   Restore the number of walkers to 16, removing 0 walkers.
</opt>
</optimization-report>
  QMC Execution time = 24.88 secs
  Reusing QMCFixedSampleLinearOptimize
 Using QMCCostFunction::QMCCostFunction

=========================================================
  Start QMCFixedSampleLinearOptimize
  File Root C2.s002 append = no 
=========================================================
  Skip QMCDriver::putQMCInfo 
  Resetting Properties of the walkers 1 x 13
test version of OpenMP threading with AdaptiveThreeShift optimizer

=========================================================
  Start VMC
  File Root C2.s002 append = no 
=========================================================
Using existing walkers 
  Resetting Properties of the walkers 1 x 13

<vmc function="put">
  qmc_counter=2  my_counter=6
  time step      = 5.0000e-01
  blocks         = 100
  steps          = 75
  substeps       = 10
  current        = 0
  target samples = 1.2000e+05
  walkers/mpi    = 16

  stepsbetweensamples = 1
<parameter name="blocks" condition="int">100</parameter>
<parameter name="blocks_between_recompute" condition="int">0</parameter>
<parameter name="check_properties" condition="int">100</parameter>
<parameter name="checkproperties" condition="int">100</parameter>
<parameter name="current" condition="int">0</parameter>
<parameter name="dmcwalkersperthread" condition="real">7.5000e+03</parameter>
<parameter name="maxcpusecs" condition="real">3.6000e+05</parameter>
<parameter name="record_configs" condition="int">0</parameter>
<parameter name="record_walkers" condition="int">1</parameter>
<parameter name="recordconfigs" condition="int">0</parameter>
<parameter name="recordwalkers" condition="int">1</parameter>
<parameter name="rewind" condition="int">0</parameter>
<parameter name="samples" condition="real">1.2000e+05</parameter>
<parameter name="samplesperthread" condition="real">7.5000e+03</parameter>
<parameter name="steps" condition="int">75</parameter>
<parameter name="stepsbetweensamples" condition="int">1</parameter>
<parameter name="store_configs" condition="int">0</parameter>
<parameter name="storeconfigs" condition="int">0</parameter>
<parameter name="sub_steps" condition="int">10</parameter>
<parameter name="substeps" condition="int">10</parameter>
<parameter name="tau" condition="au">5.0000e-01</parameter>
<parameter name="time_step" condition="au">5.0000e-01</parameter>
<parameter name="timestep" condition="au">5.0000e-01</parameter>
<parameter name="use_drift" condition="string">no</parameter>
<parameter name="usedrift" condition="string">no</parameter>
<parameter name="walkers" condition="int">1</parameter>
<parameter name="warmup_steps" condition="int">5000</parameter>
<parameter name="warmupsteps" condition="int">5000</parameter>
  DumpConfig==false Nothing (configurations, state) will be saved.
  Walker Samples are dumped every 1 steps.
</vmc>
  Set drift_modifier UNR parameter a = 1.0000e+00
  EstimatorManagerBase::add replace LocalEnergy estimator.
  Set drift_modifier UNR parameter a = 1.0000e+00
  EstimatorManagerBase::add replace LocalEnergy estimator.
entering engine_start function
<optimization-report>
<vmc stage="main" blocks="100">
  Cannot make clones again. Use existing 16 clones
  Initial partition of walkers 0 1 2 3 4 5 6 7 8 9 10 11 12 13 14 15 16 
  Using Particle by Particle moves
  Walker moves without drift
  Total Sample Size   =120000
  Walker distribution on root = 0 1 2 3 4 5 6 7 8 9 10 11 12 13 14 15 16 
===== Memory Usage after the buffer registration =====
Available memory on node 0, free + buffers : 29038 MB
Memory footprint by rank 0 on node 0       : 322 MB
==================================================
====================================================
  SimpleFixedNodeBranch::finalize after a VMC block
    QMC counter        = 2
    time step          = 0.5
    reference energy   = -75.1966
    reference variance = 1.03521
====================================================
  Execution time = 7.7252e+00
</vmc>
<opt stage="setup">
  <log>
     Reading configurations from h5FileRoot C2.s002
  QMCCostFunction is created with 16 threads.
  Using Nonlocal PP in Opt: NonLocalECP
   Number of samples loaded to each thread : 7500 7500 7500 7500 7500 7500 7500 7500 7500 7500 7500 7500 7500 7500 7500 7500 
  VMC Eavg = -7.5721e+01
  VMC Evar = 1.5939e+00
  Total weights = 1.2000e+05
  Execution time = 1.3154e+00
  </log>
</opt>
<opt stage="main" walkers="120000">
  <log>
energy and target function accumulation statistics:

  error estimate for blocks of size 2^( 1) =       0.003644560046
  error estimate for blocks of size 2^( 2) =       0.004177400462
  error estimate for blocks of size 2^( 3) =       0.004852190600
  error estimate for blocks of size 2^( 4) =       0.005556412260
  error estimate for blocks of size 2^( 5) =       0.006170343767
  error estimate for blocks of size 2^( 6) =       0.006603691236
  error estimate for blocks of size 2^( 7) =       0.006931930200
  error estimate for blocks of size 2^( 8) =       0.007077770807
  error estimate for blocks of size 2^( 9) =       0.006894353104
  error estimate for blocks of size 2^(10) =       0.006927732349

      target function =      -0.208802362016
              le_mean =     -75.720666189910
             les_mean =    5735.213213112424
             stat err =       0.006957946615
             autocorr =       3.644785417940
   target nu stat err =       0.006957946615
   target dn stat err =       0.076358878057
      target stat err =       0.000820066213
              std dev =       1.262512634200
             variance =       1.593938151514


*************************************************************************************************
Solving the linear method equations on the initial sample with initial energy -7.572066618991e+01
*************************************************************************************************

shift_s 2.50e-01   vec 0   target =      -0.208982938032 +             0.00 i    delta =   -0.000179378181
shift_s 1.00e+00   vec 0   target =      -0.208860203402 +             0.00 i    delta =   -0.000056643550
shift_s 4.00e+00   vec 0   target =      -0.208818728842 +             0.00 i    delta =   -0.000015168991
shift_s 2.50e-01   vec 0   target =      -0.209005043648 +             0.00 i    delta =   -0.000201483797
shift_s 1.00e+00   vec 0   target =      -0.208868337533 +             0.00 i    delta =   -0.000064777682
shift_s 4.00e+00   vec 0   target =      -0.208821018661 +             0.00 i    delta =   -0.000017458810
  Execution time = 9.0611e+00
  </log>
  <optVariables href="C2.s002.opt.xml">
CSFcoeff_1 -3.271615e-01 3 1  ON 0
CSFcoeff_2 -1.108738e-01 3 1  ON 1
CSFcoeff_3 -1.109786e-01 3 1  ON 2
CSFcoeff_4 -1.053185e-01 3 1  ON 3
CSFcoeff_5  1.051553e-01 3 1  ON 4
      uu_0  8.547650e-02 1 1  ON 5
      uu_1  1.235814e-02 1 1  ON 6
      uu_2 -1.762868e-02 1 1  ON 7
      uu_3 -3.146386e-02 1 1  ON 8
      uu_4 -3.076238e-02 1 1  ON 9
      uu_5 -1.621810e-02 1 1  ON 10
      uu_6 -5.093046e-03 1 1  ON 11
      uu_7  1.044930e-02 1 1  ON 12
      uu_8  3.944859e-03 1 1  ON 13
      uu_9  1.676739e-02 1 1  ON 14
      ud_0  9.076987e-02 1 1  ON 15
      ud_1  3.005610e-02 1 1  ON 16
      ud_2 -2.516356e-02 1 1  ON 17
      ud_3 -3.735715e-02 1 1  ON 18
      ud_4 -4.104717e-02 1 1  ON 19
      ud_5 -3.419621e-02 1 1  ON 20
      ud_6 -2.181286e-02 1 1  ON 21
      ud_7 -1.355188e-02 1 1  ON 22
      ud_8 -5.483957e-03 1 1  ON 23
      ud_9 -1.369082e-02 1 1  ON 24
      eC_0 -3.399729e-01 1 1  ON 25
      eC_1 -2.302557e-01 1 1  ON 26
      eC_2 -1.650628e-01 1 1  ON 27
      eC_3 -9.581821e-02 1 1  ON 28
      eC_4 -3.722501e-02 1 1  ON 29
      eC_5  6.842984e-03 1 1  ON 30
      eC_6  3.735801e-02 1 1  ON 31
      eC_7  4.784051e-02 1 1  ON 32
      eC_8  4.230472e-02 1 1  ON 33
      eC_9  2.141348e-02 1 1  ON 34
  </optVariables>
   Restore the number of walkers to 16, removing 0 walkers.
</opt>
</optimization-report>
entering engine_start function
<optimization-report>
<vmc stage="main" blocks="100">
  Cannot make clones again. Use existing 16 clones
  Initial partition of walkers 0 1 2 3 4 5 6 7 8 9 10 11 12 13 14 15 16 
  Using Particle by Particle moves
  Walker moves without drift
  Total Sample Size   =120000
  Walker distribution on root = 0 1 2 3 4 5 6 7 8 9 10 11 12 13 14 15 16 
===== Memory Usage after the buffer registration =====
Available memory on node 0, free + buffers : 29036 MB
Memory footprint by rank 0 on node 0       : 328 MB
==================================================
====================================================
  SimpleFixedNodeBranch::finalize after a VMC block
    QMC counter        = 2
    time step          = 0.5
    reference energy   = -75.6949
    reference variance = 1.56612
====================================================
  Execution time = 4.678
</vmc>
<opt stage="setup">
  <log>
     Reading configurations from h5FileRoot C2.s002
  Using Nonlocal PP in Opt: NonLocalECP
   Number of samples loaded to each thread : 7500 7500 7500 7500 7500 7500 7500 7500 7500 7500 7500 7500 7500 7500 7500 7500 
calling setComputed function
  VMC Eavg = -75.72
  VMC Evar = 1.539
  Total weights = 1.2e+05
  Execution time = 1.2
  </log>
</opt>
<opt stage="main" walkers="120000">
  <log>

*********************************************************
Solving the linear method equations on the initial sample
*********************************************************

shift_s 2.50e-01   vec 0   target =      -0.209690238395 +             0.00 i    delta =   -0.000887876379
shift_s 1.00e+00   vec 0   target =      -0.209546352209 +             0.00 i    delta =   -0.000743990193
shift_s 4.00e+00   vec 0   target =      -0.209497950228 +             0.00 i    delta =   -0.000695588211


************************************************************
Updating the guiding function with the middle shift's update
************************************************************

  Execution time = 5.879
  </log>
  <optVariables href="C2.s002.opt.xml">
CSFcoeff_1 -3.255249e-01 3 1  ON 0
CSFcoeff_2 -1.097237e-01 3 1  ON 1
CSFcoeff_3 -1.107656e-01 3 1  ON 2
CSFcoeff_4 -1.058311e-01 3 1  ON 3
CSFcoeff_5  1.045523e-01 3 1  ON 4
      uu_0  9.381974e-02 1 1  ON 5
      uu_1  1.916163e-02 1 1  ON 6
      uu_2 -1.059436e-02 1 1  ON 7
      uu_3 -2.628121e-02 1 1  ON 8
      uu_4 -2.592758e-02 1 1  ON 9
      uu_5 -1.222785e-02 1 1  ON 10
      uu_6  3.979222e-05 1 1  ON 11
      uu_7  1.745239e-02 1 1  ON 12
      uu_8  1.030291e-02 1 1  ON 13
      uu_9  2.173027e-02 1 1  ON 14
      ud_0  9.273367e-02 1 1  ON 15
      ud_1  3.134566e-02 1 1  ON 16
      ud_2 -2.616947e-02 1 1  ON 17
      ud_3 -4.008413e-02 1 1  ON 18
      ud_4 -4.659997e-02 1 1  ON 19
      ud_5 -4.253894e-02 1 1  ON 20
      ud_6 -3.066248e-02 1 1  ON 21
      ud_7 -2.252850e-02 1 1  ON 22
      ud_8 -1.060298e-02 1 1  ON 23
      ud_9 -1.601252e-02 1 1  ON 24
      eC_0 -3.705524e-01 1 1  ON 25
      eC_1 -2.603242e-01 1 1  ON 26
      eC_2 -1.941446e-01 1 1  ON 27
      eC_3 -1.231906e-01 1 1  ON 28
      eC_4 -6.184812e-02 1 1  ON 29
      eC_5 -1.378722e-02 1 1  ON 30
      eC_6  2.114554e-02 1 1  ON 31
      eC_7  3.590188e-02 1 1  ON 32
      eC_8  3.443528e-02 1 1  ON 33
      eC_9  1.688449e-02 1 1  ON 34
  </optVariables>
   Restore the number of walkers to 16, removing 0 walkers.
</opt>
</optimization-report>

*************************************************************
Generating a new sample based on the updated guiding function
*************************************************************

<optimization-report>
<vmc stage="main" blocks="100">
  Cannot make clones again. Use existing 16 clones
  Initial partition of walkers 0 1 2 3 4 5 6 7 8 9 10 11 12 13 14 15 16 
  Using Particle by Particle moves
  Walker moves without drift
  Total Sample Size   =120000
  Walker distribution on root = 0 1 2 3 4 5 6 7 8 9 10 11 12 13 14 15 16 
===== Memory Usage after the buffer registration =====
Available memory on node 0, free + buffers : 29035 MB
Memory footprint by rank 0 on node 0       : 328 MB
==================================================
====================================================
  SimpleFixedNodeBranch::finalize after a VMC block
    QMC counter        = 2
    time step          = 0.5
    reference energy   = -75.4152
    reference variance = 1.08695
====================================================
  Execution time = 4.691
</vmc>
<opt stage="setup">
  <log>
   Reading configurations from h5FileRoot C2.s002
  Using Nonlocal PP in Opt: NonLocalECP
   Number of samples loaded to each thread : 7500 7500 7500 7500 7500 7500 7500 7500 7500 7500 7500 7500 7500 7500 7500 7500 
  VMC Eavg = -75.71
  VMC Evar = 1.536
  Total weights = 1.2e+05
  Execution time = 1.012
  </log>
</opt>
<opt stage="main" walkers="120000">
  <log>

******************************************************************
Comparing different shifts' cost function values on updated sample
******************************************************************

energy and target function accumulation statistics:

  error estimate for blocks of size 2^( 1) =       0.003580158473
  error estimate for blocks of size 2^( 2) =       0.004114517728
  error estimate for blocks of size 2^( 3) =       0.004798218018
  error estimate for blocks of size 2^( 4) =       0.005527809384
  error estimate for blocks of size 2^( 5) =       0.006120871649
  error estimate for blocks of size 2^( 6) =       0.006550453646
  error estimate for blocks of size 2^( 7) =       0.006905864059
  error estimate for blocks of size 2^( 8) =       0.007074607655
  error estimate for blocks of size 2^( 9) =       0.006836117126
  error estimate for blocks of size 2^(10) =       0.006833236105

      target function =      -0.208898990027
              le_mean =     -75.709371440736
             les_mean =    5733.447015296632
             stat err =       0.006912456236
             autocorr =       3.727865956541
   target nu stat err =       0.006912456236
   target dn stat err =       0.062287346371
      target stat err =       0.000693122948
              std dev =       1.240203274785
             variance =       1.538104162788

energy and target function accumulation statistics:

  error estimate for blocks of size 2^( 1) =       0.004659210045
  error estimate for blocks of size 2^( 2) =       0.005341776539
  error estimate for blocks of size 2^( 3) =       0.006106884282
  error estimate for blocks of size 2^( 4) =       0.006883309016
  error estimate for blocks of size 2^( 5) =       0.007481634957
  error estimate for blocks of size 2^( 6) =       0.007896481430
  error estimate for blocks of size 2^( 7) =       0.008235061776
  error estimate for blocks of size 2^( 8) =       0.008292229820
  error estimate for blocks of size 2^( 9) =       0.008104088886
  error estimate for blocks of size 2^(10) =       0.008164306568

      target function =      -0.199493046968
              le_mean =     -75.726156299927
             les_mean =    5737.055714842027
             stat err =       0.008198921762
             autocorr =       3.096627064427
   target nu stat err =       0.008198921762
   target dn stat err =       0.073567031845
      target stat err =       0.000758094244
              std dev =       1.613997704223
             variance =       2.604988589237

energy and target function accumulation statistics:

  error estimate for blocks of size 2^( 1) =       0.003577805735
  error estimate for blocks of size 2^( 2) =       0.004110498053
  error estimate for blocks of size 2^( 3) =       0.004793813818
  error estimate for blocks of size 2^( 4) =       0.005524237949
  error estimate for blocks of size 2^( 5) =       0.006117538390
  error estimate for blocks of size 2^( 6) =       0.006548187211
  error estimate for blocks of size 2^( 7) =       0.006901728310
  error estimate for blocks of size 2^( 8) =       0.007068649684
  error estimate for blocks of size 2^( 9) =       0.006836247669
  error estimate for blocks of size 2^(10) =       0.006838981771

      target function =      -0.209241023868
              le_mean =     -75.717365139084
             les_mean =    5734.655454069633
             stat err =       0.006911401858
             autocorr =       3.731631747048
   target nu stat err =       0.006911401858
   target dn stat err =       0.061991497535
      target stat err =       0.000693794511
              std dev =       1.239388262404
             variance =       1.536083264985

energy and target function accumulation statistics:

  error estimate for blocks of size 2^( 1) =       0.003579540670
  error estimate for blocks of size 2^( 2) =       0.004113683031
  error estimate for blocks of size 2^( 3) =       0.004797335060
  error estimate for blocks of size 2^( 4) =       0.005527019608
  error estimate for blocks of size 2^( 5) =       0.006120123570
  error estimate for blocks of size 2^( 6) =       0.006549839564
  error estimate for blocks of size 2^( 7) =       0.006905051727
  error estimate for blocks of size 2^( 8) =       0.007073654585
  error estimate for blocks of size 2^( 9) =       0.006835816359
  error estimate for blocks of size 2^(10) =       0.006833445295

      target function =      -0.208938665940
              le_mean =     -75.710227698168
             les_mean =    5733.576138664596
             stat err =       0.006911991991
             autocorr =       3.728651984698
   target nu stat err =       0.006911991991
   target dn stat err =       0.062251164130
      target stat err =       0.000693166568
              std dev =       1.239989261728
             variance =       1.537573369201


        shift_i        shift_s       max param change    cost function value
   ------------   ------------   --------------------   --------------------
            N/A            N/A                    N/A        -0.208898990027        initial
            N/A            N/A                    N/A                    N/A     bad update
     1.0000e-02     1.0000e+00             3.0580e-02        -0.209241023868  <--
     4.0000e-02     4.0000e+00             6.2172e-03        -0.208938665940

*****************************************************************************
Applying the update for shift_i =   1.0000e-02     and shift_s =   1.0000e+00
*****************************************************************************

  Execution time = 9.9688e+00
  </log>
  <optVariables href="C2.s002.opt.xml">
CSFcoeff_1 -3.255249e-01 3 1  ON 0
CSFcoeff_2 -1.097237e-01 3 1  ON 1
CSFcoeff_3 -1.107656e-01 3 1  ON 2
CSFcoeff_4 -1.058311e-01 3 1  ON 3
CSFcoeff_5  1.045523e-01 3 1  ON 4
      uu_0  9.381974e-02 1 1  ON 5
      uu_1  1.916163e-02 1 1  ON 6
      uu_2 -1.059436e-02 1 1  ON 7
      uu_3 -2.628121e-02 1 1  ON 8
      uu_4 -2.592758e-02 1 1  ON 9
      uu_5 -1.222785e-02 1 1  ON 10
      uu_6  3.979222e-05 1 1  ON 11
      uu_7  1.745239e-02 1 1  ON 12
      uu_8  1.030291e-02 1 1  ON 13
      uu_9  2.173027e-02 1 1  ON 14
      ud_0  9.273367e-02 1 1  ON 15
      ud_1  3.134566e-02 1 1  ON 16
      ud_2 -2.616947e-02 1 1  ON 17
      ud_3 -4.008413e-02 1 1  ON 18
      ud_4 -4.659997e-02 1 1  ON 19
      ud_5 -4.253894e-02 1 1  ON 20
      ud_6 -3.066248e-02 1 1  ON 21
      ud_7 -2.252850e-02 1 1  ON 22
      ud_8 -1.060298e-02 1 1  ON 23
      ud_9 -1.601252e-02 1 1  ON 24
      eC_0 -3.705524e-01 1 1  ON 25
      eC_1 -2.603242e-01 1 1  ON 26
      eC_2 -1.941446e-01 1 1  ON 27
      eC_3 -1.231906e-01 1 1  ON 28
      eC_4 -6.184812e-02 1 1  ON 29
      eC_5 -1.378722e-02 1 1  ON 30
      eC_6  2.114554e-02 1 1  ON 31
      eC_7  3.590188e-02 1 1  ON 32
      eC_8  3.443528e-02 1 1  ON 33
      eC_9  1.688449e-02 1 1  ON 34
  </optVariables>
   Restore the number of walkers to 16, removing 0 walkers.
</opt>
</optimization-report>
  QMC Execution time = 24.92 secs
  Reusing QMCFixedSampleLinearOptimize
 Using QMCCostFunction::QMCCostFunction

=========================================================
  Start QMCFixedSampleLinearOptimize
  File Root C2.s003 append = no 
=========================================================
  Skip QMCDriver::putQMCInfo 
  Resetting Properties of the walkers 1 x 13
test version of OpenMP threading with AdaptiveThreeShift optimizer

=========================================================
  Start VMC
  File Root C2.s003 append = no 
=========================================================
Using existing walkers 
  Resetting Properties of the walkers 1 x 13

<vmc function="put">
  qmc_counter=3  my_counter=9
  time step      = 5.0000e-01
  blocks         = 100
  steps          = 75
  substeps       = 10
  current        = 0
  target samples = 1.2000e+05
  walkers/mpi    = 16

  stepsbetweensamples = 1
<parameter name="blocks" condition="int">100</parameter>
<parameter name="blocks_between_recompute" condition="int">0</parameter>
<parameter name="check_properties" condition="int">100</parameter>
<parameter name="checkproperties" condition="int">100</parameter>
<parameter name="current" condition="int">0</parameter>
<parameter name="dmcwalkersperthread" condition="real">7.5000e+03</parameter>
<parameter name="maxcpusecs" condition="real">3.6000e+05</parameter>
<parameter name="record_configs" condition="int">0</parameter>
<parameter name="record_walkers" condition="int">1</parameter>
<parameter name="recordconfigs" condition="int">0</parameter>
<parameter name="recordwalkers" condition="int">1</parameter>
<parameter name="rewind" condition="int">0</parameter>
<parameter name="samples" condition="real">1.2000e+05</parameter>
<parameter name="samplesperthread" condition="real">7.5000e+03</parameter>
<parameter name="steps" condition="int">75</parameter>
<parameter name="stepsbetweensamples" condition="int">1</parameter>
<parameter name="store_configs" condition="int">0</parameter>
<parameter name="storeconfigs" condition="int">0</parameter>
<parameter name="sub_steps" condition="int">10</parameter>
<parameter name="substeps" condition="int">10</parameter>
<parameter name="tau" condition="au">5.0000e-01</parameter>
<parameter name="time_step" condition="au">5.0000e-01</parameter>
<parameter name="timestep" condition="au">5.0000e-01</parameter>
<parameter name="use_drift" condition="string">no</parameter>
<parameter name="usedrift" condition="string">no</parameter>
<parameter name="walkers" condition="int">1</parameter>
<parameter name="warmup_steps" condition="int">5000</parameter>
<parameter name="warmupsteps" condition="int">5000</parameter>
  DumpConfig==false Nothing (configurations, state) will be saved.
  Walker Samples are dumped every 1 steps.
</vmc>
  Set drift_modifier UNR parameter a = 1.0000e+00
  EstimatorManagerBase::add replace LocalEnergy estimator.
  Set drift_modifier UNR parameter a = 1.0000e+00
  EstimatorManagerBase::add replace LocalEnergy estimator.
entering engine_start function
<optimization-report>
<vmc stage="main" blocks="100">
  Cannot make clones again. Use existing 16 clones
  Initial partition of walkers 0 1 2 3 4 5 6 7 8 9 10 11 12 13 14 15 16 
  Using Particle by Particle moves
  Walker moves without drift
  Total Sample Size   =120000
  Walker distribution on root = 0 1 2 3 4 5 6 7 8 9 10 11 12 13 14 15 16 
===== Memory Usage after the buffer registration =====
Available memory on node 0, free + buffers : 29035 MB
Memory footprint by rank 0 on node 0       : 328 MB
==================================================
====================================================
  SimpleFixedNodeBranch::finalize after a VMC block
    QMC counter        = 3
    time step          = 0.5
    reference energy   = -75.8794
    reference variance = 1.20999
====================================================
  Execution time = 7.7121e+00
</vmc>
<opt stage="setup">
  <log>
     Reading configurations from h5FileRoot C2.s003
  QMCCostFunction is created with 16 threads.
  Using Nonlocal PP in Opt: NonLocalECP
   Number of samples loaded to each thread : 7500 7500 7500 7500 7500 7500 7500 7500 7500 7500 7500 7500 7500 7500 7500 7500 
  VMC Eavg = -7.5718e+01
  VMC Evar = 1.5681e+00
  Total weights = 1.2000e+05
  Execution time = 1.3130e+00
  </log>
</opt>
<opt stage="main" walkers="120000">
  <log>
energy and target function accumulation statistics:

  error estimate for blocks of size 2^( 1) =       0.003614952218
  error estimate for blocks of size 2^( 2) =       0.004146089534
  error estimate for blocks of size 2^( 3) =       0.004810358829
  error estimate for blocks of size 2^( 4) =       0.005495796471
  error estimate for blocks of size 2^( 5) =       0.006119741154
  error estimate for blocks of size 2^( 6) =       0.006610499341
  error estimate for blocks of size 2^( 7) =       0.006825442554
  error estimate for blocks of size 2^( 8) =       0.007120939511
  error estimate for blocks of size 2^( 9) =       0.007384593278
  error estimate for blocks of size 2^(10) =       0.007289324519

      target function =      -0.208960484713
              le_mean =     -75.718273247841
             les_mean =    5734.825036111731
             stat err =       0.007155074965
             autocorr =       3.917628533323
   target nu stat err =       0.007155074965
   target dn stat err =       0.075116307605
      target stat err =       0.000813369269
              std dev =       1.252256181841
             variance =       1.568145544959


*************************************************************************************************
Solving the linear method equations on the initial sample with initial energy -7.571827324784e+01
*************************************************************************************************

shift_s 2.50e-01   vec 0   target =      -0.209126869006 +             0.00 i    delta =   -0.000165304592
shift_s 1.00e+00   vec 0   target =      -0.209013664467 +             0.00 i    delta =   -0.000052100053
shift_s 4.00e+00   vec 0   target =      -0.208975500143 +             0.00 i    delta =   -0.000013935728
shift_s 2.50e-01   vec 0   target =      -0.209133776639 +             0.00 i    delta =   -0.000172212225
shift_s 1.00e+00   vec 0   target =      -0.209017245423 +             0.00 i    delta =   -0.000055681009
shift_s 4.00e+00   vec 0   target =      -0.208976602446 +             0.00 i    delta =   -0.000015038032
  Execution time = 9.0458e+00
  </log>
  <optVariables href="C2.s003.opt.xml">
CSFcoeff_1 -3.255249e-01 3 1  ON 0
CSFcoeff_2 -1.097237e-01 3 1  ON 1
CSFcoeff_3 -1.107656e-01 3 1  ON 2
CSFcoeff_4 -1.058311e-01 3 1  ON 3
CSFcoeff_5  1.045523e-01 3 1  ON 4
      uu_0  9.381974e-02 1 1  ON 5
      uu_1  1.916163e-02 1 1  ON 6
      uu_2 -1.059436e-02 1 1  ON 7
      uu_3 -2.628121e-02 1 1  ON 8
      uu_4 -2.592758e-02 1 1  ON 9
      uu_5 -1.222785e-02 1 1  ON 10
      uu_6  3.979222e-05 1 1  ON 11
      uu_7  1.745239e-02 1 1  ON 12
      uu_8  1.030291e-02 1 1  ON 13
      uu_9  2.173027e-02 1 1  ON 14
      ud_0  9.273367e-02 1 1  ON 15
      ud_1  3.134566e-02 1 1  ON 16
      ud_2 -2.616947e-02 1 1  ON 17
      ud_3 -4.008413e-02 1 1  ON 18
      ud_4 -4.659997e-02 1 1  ON 19
      ud_5 -4.253894e-02 1 1  ON 20
      ud_6 -3.066248e-02 1 1  ON 21
      ud_7 -2.252850e-02 1 1  ON 22
      ud_8 -1.060298e-02 1 1  ON 23
      ud_9 -1.601252e-02 1 1  ON 24
      eC_0 -3.705524e-01 1 1  ON 25
      eC_1 -2.603242e-01 1 1  ON 26
      eC_2 -1.941446e-01 1 1  ON 27
      eC_3 -1.231906e-01 1 1  ON 28
      eC_4 -6.184812e-02 1 1  ON 29
      eC_5 -1.378722e-02 1 1  ON 30
      eC_6  2.114554e-02 1 1  ON 31
      eC_7  3.590188e-02 1 1  ON 32
      eC_8  3.443528e-02 1 1  ON 33
      eC_9  1.688449e-02 1 1  ON 34
  </optVariables>
   Restore the number of walkers to 16, removing 0 walkers.
</opt>
</optimization-report>
entering engine_start function
<optimization-report>
<vmc stage="main" blocks="100">
  Cannot make clones again. Use existing 16 clones
  Initial partition of walkers 0 1 2 3 4 5 6 7 8 9 10 11 12 13 14 15 16 
  Using Particle by Particle moves
  Walker moves without drift
  Total Sample Size   =120000
  Walker distribution on root = 0 1 2 3 4 5 6 7 8 9 10 11 12 13 14 15 16 
===== Memory Usage after the buffer registration =====
Available memory on node 0, free + buffers : 29030 MB
Memory footprint by rank 0 on node 0       : 331 MB
==================================================
====================================================
  SimpleFixedNodeBranch::finalize after a VMC block
    QMC counter        = 3
    time step          = 0.5
    reference energy   = -75.4465
    reference variance = 1.80218
====================================================
  Execution time = 4.684
</vmc>
<opt stage="setup">
  <log>
     Reading configurations from h5FileRoot C2.s003
  Using Nonlocal PP in Opt: NonLocalECP
   Number of samples loaded to each thread : 7500 7500 7500 7500 7500 7500 7500 7500 7500 7500 7500 7500 7500 7500 7500 7500 
calling setComputed function
  VMC Eavg = -75.72
  VMC Evar = 1.592
  Total weights = 1.2e+05
  Execution time = 1.198
  </log>
</opt>
<opt stage="main" walkers="120000">
  <log>

*********************************************************
Solving the linear method equations on the initial sample
*********************************************************

shift_s 2.50e-01   vec 0   target =      -0.209124397474 +             0.00 i    delta =   -0.000163912760
shift_s 1.00e+00   vec 0   target =      -0.208995856269 +             0.00 i    delta =   -0.000035371555
shift_s 4.00e+00   vec 0   target =      -0.208951725879 +             0.00 i    delta =    0.000008758834


************************************************************
Updating the guiding function with the middle shift's update
************************************************************

  Execution time = 5.883
  </log>
  <optVariables href="C2.s003.opt.xml">
CSFcoeff_1 -3.269436e-01 3 1  ON 0
CSFcoeff_2 -1.096617e-01 3 1  ON 1
CSFcoeff_3 -1.106669e-01 3 1  ON 2
CSFcoeff_4 -1.069444e-01 3 1  ON 3
CSFcoeff_5  1.057441e-01 3 1  ON 4
      uu_0  1.022062e-01 1 1  ON 5
      uu_1  2.674109e-02 1 1  ON 6
      uu_2 -3.404380e-03 1 1  ON 7
      uu_3 -2.044863e-02 1 1  ON 8
[...]
  Reusing QMCFixedSampleLinearOptimize
 Using QMCCostFunction::QMCCostFunction

=========================================================
  Start QMCFixedSampleLinearOptimize
  File Root C2.s014 append = no 
=========================================================
  Skip QMCDriver::putQMCInfo 
  Resetting Properties of the walkers 1 x 13
test version of OpenMP threading with AdaptiveThreeShift optimizer

=========================================================
  Start VMC
  File Root C2.s014 append = no 
=========================================================
Using existing walkers 
  Resetting Properties of the walkers 1 x 13

<vmc function="put">
  qmc_counter=14  my_counter=42
  time step      = 5.0000e-01
  blocks         = 100
  steps          = 75
  substeps       = 10
  current        = 0
  target samples = 1.2000e+05
  walkers/mpi    = 16

  stepsbetweensamples = 1
<parameter name="blocks" condition="int">100</parameter>
<parameter name="blocks_between_recompute" condition="int">0</parameter>
<parameter name="check_properties" condition="int">100</parameter>
<parameter name="checkproperties" condition="int">100</parameter>
<parameter name="current" condition="int">0</parameter>
<parameter name="dmcwalkersperthread" condition="real">7.5000e+03</parameter>
<parameter name="maxcpusecs" condition="real">3.6000e+05</parameter>
<parameter name="record_configs" condition="int">0</parameter>
<parameter name="record_walkers" condition="int">1</parameter>
<parameter name="recordconfigs" condition="int">0</parameter>
<parameter name="recordwalkers" condition="int">1</parameter>
<parameter name="rewind" condition="int">0</parameter>
<parameter name="samples" condition="real">1.2000e+05</parameter>
<parameter name="samplesperthread" condition="real">7.5000e+03</parameter>
<parameter name="steps" condition="int">75</parameter>
<parameter name="stepsbetweensamples" condition="int">1</parameter>
<parameter name="store_configs" condition="int">0</parameter>
<parameter name="storeconfigs" condition="int">0</parameter>
<parameter name="sub_steps" condition="int">10</parameter>
<parameter name="substeps" condition="int">10</parameter>
<parameter name="tau" condition="au">5.0000e-01</parameter>
<parameter name="time_step" condition="au">5.0000e-01</parameter>
<parameter name="timestep" condition="au">5.0000e-01</parameter>
<parameter name="use_drift" condition="string">no</parameter>
<parameter name="usedrift" condition="string">no</parameter>
<parameter name="walkers" condition="int">1</parameter>
<parameter name="warmup_steps" condition="int">5000</parameter>
<parameter name="warmupsteps" condition="int">5000</parameter>
  DumpConfig==false Nothing (configurations, state) will be saved.
  Walker Samples are dumped every 1 steps.
</vmc>
  Set drift_modifier UNR parameter a = 1.0000e+00
  EstimatorManagerBase::add replace LocalEnergy estimator.
  Set drift_modifier UNR parameter a = 1.0000e+00
  EstimatorManagerBase::add replace LocalEnergy estimator.
entering engine_start function
<optimization-report>
<vmc stage="main" blocks="100">
  Cannot make clones again. Use existing 16 clones
  Initial partition of walkers 0 1 2 3 4 5 6 7 8 9 10 11 12 13 14 15 16 
  Using Particle by Particle moves
  Walker moves without drift
  Total Sample Size   =120000
  Walker distribution on root = 0 1 2 3 4 5 6 7 8 9 10 11 12 13 14 15 16 
===== Memory Usage after the buffer registration =====
Available memory on node 0, free + buffers : 29000 MB
Memory footprint by rank 0 on node 0       : 359 MB
==================================================
====================================================
  SimpleFixedNodeBranch::finalize after a VMC block
    QMC counter        = 14
    time step          = 0.5
    reference energy   = -75.7894
    reference variance = 2.12247
====================================================
  Execution time = 7.7089e+00
</vmc>
<opt stage="setup">
  <log>
     Reading configurations from h5FileRoot C2.s014
  QMCCostFunction is created with 16 threads.
  Using Nonlocal PP in Opt: NonLocalECP
   Number of samples loaded to each thread : 7500 7500 7500 7500 7500 7500 7500 7500 7500 7500 7500 7500 7500 7500 7500 7500 
  VMC Eavg = -7.5753e+01
  VMC Evar = 1.5822e+00
  Total weights = 1.2000e+05
  Execution time = 1.3192e+00
  </log>
</opt>
<opt stage="main" walkers="120000">
  <log>
energy and target function accumulation statistics:

  error estimate for blocks of size 2^( 1) =       0.003631096459
  error estimate for blocks of size 2^( 2) =       0.004182830631
  error estimate for blocks of size 2^( 3) =       0.004862552951
  error estimate for blocks of size 2^( 4) =       0.005600242442
  error estimate for blocks of size 2^( 5) =       0.006248601003
  error estimate for blocks of size 2^( 6) =       0.006601846840
  error estimate for blocks of size 2^( 7) =       0.006716747957
  error estimate for blocks of size 2^( 8) =       0.006750992888
  error estimate for blocks of size 2^( 9) =       0.006879752232
  error estimate for blocks of size 2^(10) =       0.006757570865

      target function =      -0.210229857308
              le_mean =     -75.753150223444
             les_mean =    5740.121938970142
             stat err =       0.006776265985
             autocorr =       3.482613808731
   target nu stat err =       0.006776265985
   target dn stat err =       0.059658912011
      target stat err =       0.000681613600
              std dev =       1.257848710801
             variance =       1.582183379264


*************************************************************************************************
Solving the linear method equations on the initial sample with initial energy -7.575315022344e+01
*************************************************************************************************

shift_s 6.25e-02   vec 0   target =      -0.210234510945 +             0.00 i    delta =   -0.000004356064
shift_s 2.50e-01   vec 0   target =      -0.210232203520 +             0.00 i    delta =   -0.000002048639
shift_s 1.00e+00   vec 0   target =      -0.210230849665 +             0.00 i    delta =   -0.000000694784
shift_s 6.25e-02   vec 0   target =      -0.210240755699 +             0.00 i    delta =   -0.000010600818
shift_s 2.50e-01   vec 0   target =      -0.210234099015 +             0.00 i    delta =   -0.000003944134
shift_s 1.00e+00   vec 0   target =      -0.210231304033 +             0.00 i    delta =   -0.000001149152
  Execution time = 9.0487e+00
  </log>
  <optVariables href="C2.s014.opt.xml">
CSFcoeff_1 -3.225453e-01 3 1  ON 0
CSFcoeff_2 -1.129674e-01 3 1  ON 1
CSFcoeff_3 -1.289456e-01 3 1  ON 2
CSFcoeff_4 -1.176256e-01 3 1  ON 3
CSFcoeff_5  9.399873e-02 3 1  ON 4
      uu_0  1.564782e-01 1 1  ON 5
      uu_1  7.828252e-02 1 1  ON 6
      uu_2  3.882887e-02 1 1  ON 7
      uu_3  1.232472e-02 1 1  ON 8
      uu_4  3.078991e-04 1 1  ON 9
      uu_5  1.075305e-03 1 1  ON 10
      uu_6  1.563134e-02 1 1  ON 11
      uu_7  4.437599e-02 1 1  ON 12
      uu_8  7.412985e-02 1 1  ON 13
      uu_9  8.451333e-02 1 1  ON 14
      ud_0  1.025470e-01 1 1  ON 15
      ud_1  3.148500e-02 1 1  ON 16
      ud_2 -3.785120e-02 1 1  ON 17
      ud_3 -6.863145e-02 1 1  ON 18
      ud_4 -9.256940e-02 1 1  ON 19
      ud_5 -1.037088e-01 1 1  ON 20
      ud_6 -1.053160e-01 1 1  ON 21
      ud_7 -9.354047e-02 1 1  ON 22
      ud_8 -7.309810e-02 1 1  ON 23
      ud_9 -2.999963e-02 1 1  ON 24
      eC_0 -6.656824e-01 1 1  ON 25
      eC_1 -5.493377e-01 1 1  ON 26
      eC_2 -4.662969e-01 1 1  ON 27
      eC_3 -3.747328e-01 1 1  ON 28
      eC_4 -2.871534e-01 1 1  ON 29
      eC_5 -2.053753e-01 1 1  ON 30
      eC_6 -1.336068e-01 1 1  ON 31
      eC_7 -8.141836e-02 1 1  ON 32
      eC_8 -4.651199e-02 1 1  ON 33
      eC_9 -2.617931e-02 1 1  ON 34
  </optVariables>
   Restore the number of walkers to 16, removing 0 walkers.
</opt>
</optimization-report>
entering engine_start function
<optimization-report>
<vmc stage="main" blocks="100">
  Cannot make clones again. Use existing 16 clones
  Initial partition of walkers 0 1 2 3 4 5 6 7 8 9 10 11 12 13 14 15 16 
  Using Particle by Particle moves
  Walker moves without drift
  Total Sample Size   =120000
  Walker distribution on root = 0 1 2 3 4 5 6 7 8 9 10 11 12 13 14 15 16 
===== Memory Usage after the buffer registration =====
Available memory on node 0, free + buffers : 29000 MB
Memory footprint by rank 0 on node 0       : 359 MB
==================================================
====================================================
  SimpleFixedNodeBranch::finalize after a VMC block
    QMC counter        = 14
    time step          = 0.5
    reference energy   = -75.5851
    reference variance = 1.27992
====================================================
  Execution time = 4.679
</vmc>
<opt stage="setup">
  <log>
     Reading configurations from h5FileRoot C2.s014
  Using Nonlocal PP in Opt: NonLocalECP
   Number of samples loaded to each thread : 7500 7500 7500 7500 7500 7500 7500 7500 7500 7500 7500 7500 7500 7500 7500 7500 
calling setComputed function
  VMC Eavg = -75.75
  VMC Evar = 1.631
  Total weights = 1.2e+05
  Execution time = 1.203
  </log>
</opt>
<opt stage="main" walkers="120000">
  <log>

*********************************************************
Solving the linear method equations on the initial sample
*********************************************************

shift_s 6.25e-02   vec 0   target =      -0.209503514032 +             0.00 i    delta =    0.000726343275
shift_s 2.50e-01   vec 0   target =      -0.209504219991 +             0.00 i    delta =    0.000725637317
shift_s 1.00e+00   vec 0   target =      -0.209505194445 +             0.00 i    delta =    0.000724662862


************************************************************
Updating the guiding function with the middle shift's update
************************************************************

  Execution time = 5.883
  </log>
  <optVariables href="C2.s014.opt.xml">
CSFcoeff_1 -3.192767e-01 3 1  ON 0
CSFcoeff_2 -1.147902e-01 3 1  ON 1
CSFcoeff_3 -1.272798e-01 3 1  ON 2
CSFcoeff_4 -1.178328e-01 3 1  ON 3
CSFcoeff_5  9.510652e-02 3 1  ON 4
      uu_0  1.643370e-01 1 1  ON 5
      uu_1  8.681805e-02 1 1  ON 6
      uu_2  4.658164e-02 1 1  ON 7
      uu_3  2.047325e-02 1 1  ON 8
      uu_4  8.083271e-03 1 1  ON 9
      uu_5  9.494190e-03 1 1  ON 10
      uu_6  2.374664e-02 1 1  ON 11
      uu_7  5.392728e-02 1 1  ON 12
      uu_8  8.017349e-02 1 1  ON 13
      uu_9  9.409777e-02 1 1  ON 14
      ud_0  1.009213e-01 1 1  ON 15
      ud_1  3.174434e-02 1 1  ON 16
      ud_2 -3.779131e-02 1 1  ON 17
      ud_3 -6.849633e-02 1 1  ON 18
      ud_4 -9.265749e-02 1 1  ON 19
      ud_5 -1.035371e-01 1 1  ON 20
      ud_6 -1.057927e-01 1 1  ON 21
      ud_7 -9.351681e-02 1 1  ON 22
      ud_8 -7.161492e-02 1 1  ON 23
      ud_9 -3.091828e-02 1 1  ON 24
      eC_0 -6.687315e-01 1 1  ON 25
      eC_1 -5.505898e-01 1 1  ON 26
      eC_2 -4.670312e-01 1 1  ON 27
      eC_3 -3.762492e-01 1 1  ON 28
      eC_4 -2.879278e-01 1 1  ON 29
      eC_5 -2.063820e-01 1 1  ON 30
      eC_6 -1.345600e-01 1 1  ON 31
      eC_7 -8.260130e-02 1 1  ON 32
      eC_8 -4.780990e-02 1 1  ON 33
      eC_9 -2.778234e-02 1 1  ON 34
  </optVariables>
   Restore the number of walkers to 16, removing 0 walkers.
</opt>
</optimization-report>

*************************************************************
Generating a new sample based on the updated guiding function
*************************************************************

<optimization-report>
<vmc stage="main" blocks="100">
  Cannot make clones again. Use existing 16 clones
  Initial partition of walkers 0 1 2 3 4 5 6 7 8 9 10 11 12 13 14 15 16 
  Using Particle by Particle moves
  Walker moves without drift
  Total Sample Size   =120000
  Walker distribution on root = 0 1 2 3 4 5 6 7 8 9 10 11 12 13 14 15 16 
===== Memory Usage after the buffer registration =====
Available memory on node 0, free + buffers : 29000 MB
Memory footprint by rank 0 on node 0       : 359 MB
==================================================
====================================================
  SimpleFixedNodeBranch::finalize after a VMC block
    QMC counter        = 14
    time step          = 0.5
    reference energy   = -75.5981
    reference variance = 1.32742
====================================================
  Execution time = 4.678
</vmc>
<opt stage="setup">
  <log>
   Reading configurations from h5FileRoot C2.s014
  Using Nonlocal PP in Opt: NonLocalECP
   Number of samples loaded to each thread : 7500 7500 7500 7500 7500 7500 7500 7500 7500 7500 7500 7500 7500 7500 7500 7500 
  VMC Eavg = -75.75
  VMC Evar = 1.572
  Total weights = 1.2e+05
  Execution time = 1.01
  </log>
</opt>
<opt stage="main" walkers="120000">
  <log>

******************************************************************
Comparing different shifts' cost function values on updated sample
******************************************************************

energy and target function accumulation statistics:

  error estimate for blocks of size 2^( 1) =       0.003619952470
  error estimate for blocks of size 2^( 2) =       0.004162357078
  error estimate for blocks of size 2^( 3) =       0.004862054264
  error estimate for blocks of size 2^( 4) =       0.005580222558
  error estimate for blocks of size 2^( 5) =       0.006224904990
  error estimate for blocks of size 2^( 6) =       0.006755465370
  error estimate for blocks of size 2^( 7) =       0.006972583744
  error estimate for blocks of size 2^( 8) =       0.007069760917
  error estimate for blocks of size 2^( 9) =       0.006962158613
  error estimate for blocks of size 2^(10) =       0.007220607708

      target function =      -0.210033767332
              le_mean =     -75.745918457321
             les_mean =    5739.016636545169
             stat err =       0.007056277746
             autocorr =       3.799667527352
   target nu stat err =       0.007056277745
   target dn stat err =       0.063035962464
      target stat err =       0.000715489097
              std dev =       1.253988319793
             variance =       1.572486706176

energy and target function accumulation statistics:

  error estimate for blocks of size 2^( 1) =       0.003619175156
  error estimate for blocks of size 2^( 2) =       0.004159787518
  error estimate for blocks of size 2^( 3) =       0.004856532104
  error estimate for blocks of size 2^( 4) =       0.005569786141
  error estimate for blocks of size 2^( 5) =       0.006206252107
  error estimate for blocks of size 2^( 6) =       0.006724037471
  error estimate for blocks of size 2^( 7) =       0.006939903584
  error estimate for blocks of size 2^( 8) =       0.007035583857
  error estimate for blocks of size 2^( 9) =       0.006936858514
  error estimate for blocks of size 2^(10) =       0.007212841149

      target function =      -0.210026936377
              le_mean =     -75.745583185305
             les_mean =    5738.965170440921
             stat err =       0.007031296776
             autocorr =       3.774432419518
   target nu stat err =       0.007031296776
   target dn stat err =       0.063414935452
      target stat err =       0.000718188036
              std dev =       1.253719050407
             variance =       1.571811457355

energy and target function accumulation statistics:

  error estimate for blocks of size 2^( 1) =       0.003619840613
  error estimate for blocks of size 2^( 2) =       0.004159842602
  error estimate for blocks of size 2^( 3) =       0.004855692064
  error estimate for blocks of size 2^( 4) =       0.005567230403
  error estimate for blocks of size 2^( 5) =       0.006199963083
  error estimate for blocks of size 2^( 6) =       0.006711117812
  error estimate for blocks of size 2^( 7) =       0.006927241343
  error estimate for blocks of size 2^( 8) =       0.007022490055
  error estimate for blocks of size 2^( 9) =       0.006930780882
  error estimate for blocks of size 2^(10) =       0.007217861234

      target function =      -0.210008668916
              le_mean =     -75.745275348086
             les_mean =    5738.919113981836
             stat err =       0.007024593379
             autocorr =       3.765854040680
   target nu stat err =       0.007024593379
   target dn stat err =       0.063696079574
      target stat err =       0.000720368482
              std dev =       1.253949571414
             variance =       1.572389527650

energy and target function accumulation statistics:

  error estimate for blocks of size 2^( 1) =       0.003619331514
  error estimate for blocks of size 2^( 2) =       0.004160973343
  error estimate for blocks of size 2^( 3) =       0.004859493079
  error estimate for blocks of size 2^( 4) =       0.005575777352
  error estimate for blocks of size 2^( 5) =       0.006217391099
  error estimate for blocks of size 2^( 6) =       0.006743328889
  error estimate for blocks of size 2^( 7) =       0.006959860554
  error estimate for blocks of size 2^( 8) =       0.007056463329
  error estimate for blocks of size 2^( 9) =       0.006951853974
  error estimate for blocks of size 2^(10) =       0.007216786747

      target function =      -0.210034414878
              le_mean =     -75.745801161847
             les_mean =    5738.998327823882
             stat err =       0.007046241151
             autocorr =       3.790166390422
   target nu stat err =       0.007046241151
   target dn stat err =       0.063143847754
      target stat err =       0.000716203095
              std dev =       1.253773214477
             variance =       1.571947273339


        shift_i        shift_s       max param change    cost function value
   ------------   ------------   --------------------   --------------------
            N/A            N/A                    N/A        -0.210033767332        initial
     6.2500e-04     6.2500e-02             1.8307e-02        -0.210026936377
     2.5000e-03     2.5000e-01             9.5844e-03        -0.210008668916
     1.0000e-02     1.0000e+00             3.6757e-03        -0.210034414878  <--

*****************************************************************************
Applying the update for shift_i =   1.0000e-02     and shift_s =   1.0000e+00
*****************************************************************************

  Execution time = 9.9647e+00
  </log>
  <optVariables href="C2.s014.opt.xml">
CSFcoeff_1 -3.212517e-01 3 1  ON 0
CSFcoeff_2 -1.136849e-01 3 1  ON 1
CSFcoeff_3 -1.282174e-01 3 1  ON 2
CSFcoeff_4 -1.175481e-01 3 1  ON 3
CSFcoeff_5  9.438077e-02 3 1  ON 4
      uu_0  1.591160e-01 1 1  ON 5
      uu_1  8.120936e-02 1 1  ON 6
      uu_2  4.142430e-02 1 1  ON 7
      uu_3  1.508539e-02 1 1  ON 8
      uu_4  2.913813e-03 1 1  ON 9
      uu_5  3.944028e-03 1 1  ON 10
      uu_6  1.833990e-02 1 1  ON 11
      uu_7  4.770896e-02 1 1  ON 12
      uu_8  7.610146e-02 1 1  ON 13
      uu_9  8.818900e-02 1 1  ON 14
      ud_0  1.018499e-01 1 1  ON 15
      ud_1  3.158913e-02 1 1  ON 16
      ud_2 -3.782950e-02 1 1  ON 17
      ud_3 -6.857555e-02 1 1  ON 18
      ud_4 -9.260966e-02 1 1  ON 19
      ud_5 -1.036413e-01 1 1  ON 20
      ud_6 -1.055326e-01 1 1  ON 21
      ud_7 -9.359290e-02 1 1  ON 22
      ud_8 -7.258133e-02 1 1  ON 23
      ud_9 -3.056543e-02 1 1  ON 24
      eC_0 -6.669470e-01 1 1  ON 25
      eC_1 -5.498403e-01 1 1  ON 26
      eC_2 -4.665843e-01 1 1  ON 27
      eC_3 -3.753524e-01 1 1  ON 28
      eC_4 -2.874638e-01 1 1  ON 29
      eC_5 -2.057838e-01 1 1  ON 30
      eC_6 -1.339905e-01 1 1  ON 31
      eC_7 -8.189891e-02 1 1  ON 32
      eC_8 -4.704192e-02 1 1  ON 33
      eC_9 -2.684294e-02 1 1  ON 34
  </optVariables>
   Restore the number of walkers to 16, removing 0 walkers.
</opt>
</optimization-report>
  QMC Execution time = 24.9 secs
  Total Execution time = 373.9 secs

=========================================================
  A new xml input file : C2.s014.cont.xml
