  Input file(s): opt.in.xml 

=====================================================
                    QMCPACK 3.7.9

       (c) Copyright 2003-  QMCPACK developers

                    Please cite:
 J. Kim et al. J. Phys. Cond. Mat. 30 195901 (2018)
      https://doi.org/10.1088/1361-648X/aab9c3

  Git branch: develop
  Last git commit: f1ebafb62ade7e283f475f83a8c2737545014f87
  Last git commit date: Wed May 8 14:47:56 2019 -0400
  Last git commit subject: Merge pull request #1587 from rcclay/ke_pulay_bugfix
=====================================================
  Global options 

  Total number of MPI ranks = 4
  Number of MPI groups      = 1
  MPI group ID              = 0
  Number of ranks in group  = 4
  MPI ranks per node        = 4
  OMP 1st level threads     = 4
  OMP nested threading disabled or only 1 thread on the 2nd level

  Precision used in this calculation, see definitions in the manual:
  Base precision      = double
  Full precision      = double

  Structure-of-arrays (SoA) optimization enabled

  Input XML = opt.in.xml

  Project = opt
  date    = 2019-05-09 18:35:19 UTC
  host    = ip-172-31-2-151

 Random Number
 -------------
  Offset for the random number seeds based on time: 743

  Range of prime numbers to use as seeds over processors and threads = 5657-5801


 Lattice
 -------
  Simulation cell radius   = 1.947495 bohr
  Wigner-Seitz cell radius = 2.385185 bohr

 Unit Cell
 ---------
  Lattice (bohr):      6.7463223000      6.7463223000      0.0000000000
                       0.0000000000      3.3731611500      3.3731611500
                       3.3731611500      0.0000000000      3.3731611500

  Boundary Conditions:  p  p  p 

  Volume (bohr^3) = 153.5222266112

  Reciprocal vectors without 2*pi.
    g_1 =       0.0741144549      0.0741144549     -0.0741144549
    g_2 =      -0.1482289098      0.1482289098      0.1482289098
    g_3 =       0.1482289098     -0.1482289098      0.1482289098

  Metric tensor in real-space.
    h_1 = 91.0257291510 22.7564322877 22.7564322877 
    h_2 = 22.7564322877 22.7564322877 11.3782161439 
    h_3 = 22.7564322877 11.3782161439 22.7564322877 

  Metric tensor in g-space.
    h_1 = 0.6505592096 -0.4337061397 -0.4337061397 
    h_2 = -0.4337061397 2.6022368383 -0.8674122794 
    h_3 = -0.4337061397 -0.8674122794 2.6022368383 

 Particle Set 
 ------------
  Name: e
  Initializing the lattice by the global supercell
  All the species have the same mass 1.0000000000
  Long-range breakup parameters:
    rc*kc = 15.0000000000; rc = 1.9474954980; kc = 7.7022000901

  Creating Structure Factor for periodic systems 7.7022000901
  KContainer initialised with cutoff 7.7022000901
   # of K-shell  = 59
   # of K points = 1188

  Particle set size: 16

 Particle Set 
 ------------
  Name: ion0
  Initializing the lattice by the global supercell
  All the species have the same mass 21894.7135906000
  Long-range breakup parameters:
    rc*kc = 15.0000000000; rc = 1.9474954980; kc = 7.7022000901

  Creating Structure Factor for periodic systems 7.7022000901
  KContainer initialised with cutoff 7.7022000901
   # of K-shell  = 59
   # of K points = 1188

  Particle set size: 4

 Wavefunction setup: 
 ------------------- 
  Name: psi0
  LCAO: SoaAtomicBasisSet<MultiQuintic,1>
Reading BasisSet from HDF5 file:../scf/scf.h5
<input node="atomicBasisSet" name="bfd-vdz" expandYlm="pyscf" angular="spherical" elementType="C" normalized="no" type="Numerical" expM="0" />
  AO BasisSet for C
   Spherical Harmonics contain (-1)^m factor
   Angular momentum m expanded as -l, ... ,l, with the exception of L=1 (1,-1,0)
   Grid is created by the input paremters in h5
    Using log grid ri = 0.0000010000 rf = 100.0000000000 npts = 1001
   R(n,l,m,s) 0 0 0 0
   R(n,l,m,s) 1 0 0 0
   R(n,l,m,s) 2 1 0 0
   R(n,l,m,s) 3 1 0 0
   R(n,l,m,s) 4 2 0 0
Expanding Ylm as L=1 as (1,-1,0) and L>1 as -l,-l+1,...,l-1,l
   Adding 1 spherical orbitals
   Adding 1 spherical orbitals
   Adding 3 spherical orbitals
   Adding 3 spherical orbitals
   Adding 5 spherical orbitals
  Setting cutoff radius 10.3752841582

   Maximum Angular Momentum  = 2
   Number of Radial functors = 5
   Basis size                = 13

  Created SPOSet builder named 'LCAOBSet' of type molecularorbital
Reuse SPOSetBuilder "LCAOBSet" type MolecularOrbital
  Building SPOSet '' with '' basis set.
Reuse SPOSetBuilder "LCAOBSet" type MolecularOrbital
  Building SPOSet '' with '' basis set.
  Creating a determinant updet group=0 sposet=updet
  Reusing a SPO set updet
Using DiracDeterminant with DelayedUpdate engine
Using rank-1 Sherman-Morrison Fahy update

  Creating a determinant downdet group=1 sposet=downdet
  Reusing a SPO set downdet
Using DiracDeterminant with DelayedUpdate engine
Using rank-1 Sherman-Morrison Fahy update

  FermionWF = SlaterDet

   Jastrow
   -------
    Name: J1   Type: One-Body   Function: bspline

    Radial function for element: C
     Number of parameters: 5
     Cusp: 0.0000000000
     Cutoff radius: 2.3851851232

     Name         Value Type Recompute Use Index
     ---- ------------- ---- --------- --- -----
     eC_0  0.000000e+00    1         1  ON     0
     eC_1  0.000000e+00    1         1  ON     1
     eC_2  0.000000e+00    1         1  ON     2
     eC_3  0.000000e+00    1         1  ON     3
     eC_4  0.000000e+00    1         1  ON     4


   Jastrow
   -------
    Name: J2   Type: Two-Body   Function: bspline

    Radial function for species: u - u
     Number of parameters: 5
     Cusp: -0.25
     Cutoff radius: 2.38519

     Name         Value Type Recompute Use Index
     ---- ------------- ---- --------- --- -----
     uu_0  0.000000e+00    1         1  ON     0
     uu_1  0.000000e+00    1         1  ON     1
     uu_2  0.000000e+00    1         1  ON     2
     uu_3  0.000000e+00    1         1  ON     3
     uu_4  0.000000e+00    1         1  ON     4

    Radial function for species: u - d
     Number of parameters: 5
     Cusp: -0.5
     Cutoff radius: 2.38519

     Name         Value Type Recompute Use Index
     ---- ------------- ---- --------- --- -----
     ud_0  0.000000e+00    1         1  ON     0
     ud_1  0.000000e+00    1         1  ON     1
     ud_2  0.000000e+00    1         1  ON     2
     ud_3  0.000000e+00    1         1  ON     3
     ud_4  0.000000e+00    1         1  ON     4

  QMCHamiltonian::addOperator Kinetic to H, physical Hamiltonian 

  Creating CoulombHandler with the optimal breakup. 
  KContainer initialised with cutoff 35.2028
   # of K-shell  = 1194
   # of K points = 113300

  NUMBER OF OPT_BREAK KVECS = 75813162229
 finding kc:  7.7022 , -1
  LRBreakp parameter Kc =7.7022
    Continuum approximation in k = [35.2028,3080.88)

   LR Breakup chi^2 = 1.02377e-15
   PBCAA self-interaction term -12.466
   PBCAA total constant -13.771
  Maximum K shell 58
  Number of k vectors 1188
  Fixed Coulomb potential for e
    e-e Madelung Const. =-0.22957
    Vtot     =0
  QMCHamiltonian::addOperator ElecElec to H, physical Hamiltonian 
QMCHamiltonian::addOperatorType added type coulomb named ElecElec
  Clone CoulombHandler. 
   PBCAA self-interaction term -49.865
   PBCAA total constant -51.169
  Maximum K shell 58
  Number of k vectors 1188
  Fixed Coulomb potential for ion0
    e-e Madelung Const. =-0.22957
    Vtot     =-25.551
  QMCHamiltonian::addOperator IonIon to H, physical Hamiltonian 
QMCHamiltonian::addOperatorType added type coulomb named IonIon

  ECPotential builder for pseudopotential 

  Adding pseudopotential for C
   Linear grid  ri=0 rf=10 npts = 10001
    ECPComponentBuilder::buildSemiLocalAndLocal 
    Assuming Hartree unit
   Number of angular momentum channels 2
   Maximum angular momentum channel 1
   Creating a Linear Grid Rmax=1.7
  Using global grid with delta = 0.001
   Making L=1 a local potential with a radial cutoff of 9.999
    Non-local pseudopotential parameters
    Maximum angular mementum = 0
    Number of non-local channels = 1
       l(0)=0
    Cutoff radius = 1.7
    Spherical grids and weights: 
                        1                 0                 0       0.08333333333
                       -1   1.224646799e-16                 0       0.08333333333
             0.4472135955       0.894427191                 0       0.08333333333
            -0.4472135955      0.7236067977      0.5257311121       0.08333333333
             0.4472135955      0.2763932023      0.8506508084       0.08333333333
            -0.4472135955     -0.2763932023      0.8506508084       0.08333333333
             0.4472135955     -0.7236067977      0.5257311121       0.08333333333
            -0.4472135955      -0.894427191   1.095357397e-16       0.08333333333
             0.4472135955     -0.7236067977     -0.5257311121       0.08333333333
            -0.4472135955     -0.2763932023     -0.8506508084       0.08333333333
             0.4472135955      0.2763932023     -0.8506508084       0.08333333333
            -0.4472135955      0.7236067977     -0.5257311121       0.08333333333
    Maximum cutoff radius 1.7
  Clone CoulombHandler. 
   Constant of PBCAB 2.609141888
  Rcut                1.947495498
  Maximum K shell     58
  Number of k vectors 1188
    CoulombPBCAB::add 
 Setting a linear grid=[0,1.947495498) number of grid =1948
    Creating the short-range pseudopotential for species 0
  QMCHamiltonian::addOperator LocalECP to H, physical Hamiltonian 

  Using NonLocalECP potential 
    Maximum grid on a sphere for NonLocalECPotential: 12
  QMCHamiltonian::addOperator NonLocalECP to H, physical Hamiltonian 
QMCHamiltonian::addOperatorType added type pseudo named PseudoPot

  QMCHamiltonian::add2WalkerProperty added
    5 to P::PropertyList 
    0 to P::Collectables 
    starting Index of the observables in P::PropertyList = 9
ParticleSetPool::randomize 
  Initialization Execution time = 0.3825 secs
=========================================================
 Summary of QMC systems 
=========================================================
ParticleSetPool has: 

  ParticleSet 'e' contains 16 particles :  u(8) d(8)

    u  7.7803277002e+00  6.5605253188e+00  1.6899530786e+00
    u  4.6850584473e+00  6.5338896483e+00  2.9518513568e+00
    u  3.7892960756e+00  4.0340172832e+00  1.0215754659e+00
    u  1.6219387396e+00  3.7640339590e+00  3.5137192348e+00
    u  7.3160211919e+00  5.4221271528e+00  2.8211994452e+00
    u  4.5432659339e+00  4.1305032645e+00  3.3890410699e+00
    u  5.1271341402e+00  3.9216492389e+00  2.0444932113e+00
    u  6.5845828967e+00  5.3679622779e+00  4.0303665738e+00
    d  4.1492431119e+00  3.7357582341e+00  5.8336752559e+00
    d  3.6700199857e+00  9.6319240003e-01  3.6979019384e+00
    (... and 6 more particle positions ...)

  Distance table for similar particles (A-A):
    source/target: e
    Using structure-of-arrays (SoA) data layout
    Distance computations use general periodic cell in 3D with corner image checks.

  Distance table for dissimilar particles (A-B):
    source: ion0  target: e
    Using structure-of-arrays (SoA) data layout
    Distance computations use general periodic cell in 3D with corner image checks.


  ParticleSet 'ion0' contains 4 particles :  C(4)

    C  0.0000000000e+00  0.0000000000e+00  0.0000000000e+00
    C  1.6865805800e+00  1.6865805800e+00  1.6865805800e+00
    C  3.3731611500e+00  3.3731611500e+00 -8.8536235098e-34
    C  5.0597417200e+00  5.0597417200e+00  1.6865805800e+00

  Distance table for similar particles (A-A):
    source/target: ion0
    Using structure-of-arrays (SoA) data layout
    Distance computations use general periodic cell in 3D with corner image checks.


  Hamiltonian h0
  Kinetic         Kinetic energy
  ElecElec        CoulombPBCAA potential: e_e
  IonIon          CoulombPBCAA potential: ion0_ion0
  LocalECP        CoulombPBCAB potential source: ion0
  NonLocalECP     NonLocalECPotential: ion0

Loop execution max-interations = 3

=========================================================
  Start QMCFixedSampleLinearOptimize
  File Root opt.s000 append = no 
=========================================================
  Skip QMCDriver::putQMCInfo 
  Resetting Properties of the walkers 1 x 14
  Adding 4 walkers to 0 existing sets
  Total number of walkers: 1.6000000000e+01
  Total weight: 1.6000000000e+01

=========================================================
  Start VMC
  File Root opt.s000 append = no 
=========================================================
  Using the current 4 walkers.
  Total number of walkers: 1.6000000000e+01
  Total weight: 1.6000000000e+01
  Resetting Properties of the walkers 1 x 14

<vmc function="put">
  qmc_counter=0  my_counter=0
  time step      = 3.0000000000e-01
  blocks         = 100
  steps          = 16
  substeps       = 10
  current        = 0
  target samples = 2.5600000000e+04
  walkers/mpi    = 4

  stepsbetweensamples = 1
<parameter name="blocks" condition="int">100</parameter>
<parameter name="blocks_between_recompute" condition="int">0</parameter>
<parameter name="check_properties" condition="int">100</parameter>
<parameter name="checkproperties" condition="int">100</parameter>
<parameter name="current" condition="int">0</parameter>
<parameter name="dmcwalkersperthread" condition="real">1.6000000000e+03</parameter>
<parameter name="maxcpusecs" condition="real">3.6000000000e+05</parameter>
<parameter name="record_configs" condition="int">0</parameter>
<parameter name="record_walkers" condition="int">1</parameter>
<parameter name="recordconfigs" condition="int">0</parameter>
<parameter name="recordwalkers" condition="int">1</parameter>
<parameter name="rewind" condition="int">0</parameter>
<parameter name="samples" condition="real">2.5600000000e+04</parameter>
<parameter name="samplesperthread" condition="real">1.6000000000e+03</parameter>
<parameter name="steps" condition="int">16</parameter>
<parameter name="stepsbetweensamples" condition="int">1</parameter>
<parameter name="store_configs" condition="int">0</parameter>
<parameter name="storeconfigs" condition="int">0</parameter>
<parameter name="sub_steps" condition="int">10</parameter>
<parameter name="substeps" condition="int">10</parameter>
<parameter name="tau" condition="au">3.0000000000e-01</parameter>
<parameter name="time_step" condition="au">3.0000000000e-01</parameter>
<parameter name="timestep" condition="au">3.0000000000e-01</parameter>
<parameter name="use_drift" condition="string">no</parameter>
<parameter name="usedrift" condition="string">no</parameter>
<parameter name="walkers" condition="int">4</parameter>
<parameter name="warmup_steps" condition="int">300</parameter>
<parameter name="warmupsteps" condition="int">300</parameter>
  DumpConfig==false Nothing (configurations, state) will be saved.
  Walker Samples are dumped every 1 steps.
</vmc>
  Set drift_modifier UNR parameter a = 1.0000000000e+00
  Adding a default LocalEnergyEstimator for the MainEstimator 
 Using QMCCostFunction::QMCCostFunction
 Using Default Cost Function: Cost = <|E-E_ff|^2>
  Set drift_modifier UNR parameter a = 1.0000000000e+00
  Adding a default LocalEnergyEstimator for the MainEstimator 
<optimization-report>
<vmc stage="main" blocks="100">
  CloneManager::makeClones makes 4 clones for W/Psi/H.
  Cloning methods for both Psi and H are used
===== Memory Usage before cloning =====
Available memory on node 0, free + buffers : 29937 MB
Memory footprint by rank 0 on node 0       : 77 MB
==================================================
===== Memory Usage after cloning =====
Available memory on node 0, free + buffers : 29935 MB
Memory footprint by rank 0 on node 0       : 77 MB
==================================================
  Initial partition of walkers 0 1 2 3 4 

  Using Particle by Particle moves
  Walker moves without drift
  Total Sample Size   =25600
  Walker distribution on root = 0 1 2 3 4 
  Using Locality Approximation
===== Memory Usage after the buffer registration =====
Available memory on node 0, free + buffers : 29935 MB
Memory footprint by rank 0 on node 0       : 77 MB
==================================================
  Anonymous Buffer size per walker : 7520 Bytes.
MEMORY increase 0 MB VMC::resetRun
====================================================
  SimpleFixedNodeBranch::finalize after a VMC block
    QMC counter        = 0
    time step          = 0.3
    reference energy   = -21.2695
    reference variance = 2.7817
====================================================
  Execution time = 2.3111e+01
</vmc>
<opt stage="setup">
  <log>
   Reading configurations from h5FileRoot opt.s000
  QMCCostFunction is created with 4 threads.
  Using Nonlocal PP in Opt: NonLocalECP
   Number of samples loaded to each thread : 1600 1600 1600 1600 
  VMC Eavg = -2.1210e+01
  VMC Evar = 3.7564e+00
  Total weights = 2.5600e+04
  Execution time = 1.0450e+01
  </log>
</opt>
<opt stage="main" walkers="25600">
  <log>

*****************************************
Building overlap and Hamiltonian matrices
*****************************************

Among totally 15 optimized parameters, largest LM parameter change : 3.6296e-01 at parameter 10

******************************************************************************
Init Cost =  -1.8713e+01    New Cost =  -1.9390e+01  Delta Cost =  -6.7694e-01
******************************************************************************

The new set of parameters is valid. Updating the trial wave function!

*****************************************************************************
Applying the update for shift_i =   1.0000e-02     and shift_s =   2.5000e-01
*****************************************************************************
  Execution time = 4.3951e+01
  </log>
  <optVariables href="opt.s000.opt.xml">
eC_0 -1.655866e-01 1 1  ON 0
eC_1 -1.545479e-01 1 1  ON 1
eC_2 -1.235362e-01 1 1  ON 2
eC_3 -7.950563e-02 1 1  ON 3
eC_4 -3.540861e-02 1 1  ON 4
uu_0  1.964228e-01 1 1  ON 5
uu_1  1.484991e-01 1 1  ON 6
uu_2  9.669209e-02 1 1  ON 7
uu_3  5.292272e-02 1 1  ON 8
uu_4  2.791791e-02 1 1  ON 9
ud_0  3.629646e-01 1 1  ON 10
ud_1  2.386666e-01 1 1  ON 11
ud_2  1.438624e-01 1 1  ON 12
ud_3  7.454995e-02 1 1  ON 13
ud_4  3.569447e-02 1 1  ON 14
  </optVariables>
   Restore the number of walkers to 4, removing 0 walkers.
</opt>
</optimization-report>
  QMC Execution time = 43.95 secs
  Reusing QMCFixedSampleLinearOptimize
 Using QMCCostFunction::QMCCostFunction
 Using Default Cost Function: Cost = <|E-E_ff|^2>

=========================================================
  Start QMCFixedSampleLinearOptimize
  File Root opt.s001 append = no 
=========================================================
  Skip QMCDriver::putQMCInfo 
  Resetting Properties of the walkers 1 x 14

=========================================================
  Start VMC
  File Root opt.s001 append = no 
=========================================================
Using existing walkers 
  Resetting Properties of the walkers 1 x 14

<vmc function="put">
  qmc_counter=1  my_counter=1
  time step      = 3.0000e-01
  blocks         = 100
  steps          = 16
  substeps       = 10
  current        = 0
  target samples = 2.5600e+04
  walkers/mpi    = 4

  stepsbetweensamples = 1
<parameter name="blocks" condition="int">100</parameter>
<parameter name="blocks_between_recompute" condition="int">0</parameter>
<parameter name="check_properties" condition="int">100</parameter>
<parameter name="checkproperties" condition="int">100</parameter>
<parameter name="current" condition="int">0</parameter>
<parameter name="dmcwalkersperthread" condition="real">1.6000e+03</parameter>
<parameter name="maxcpusecs" condition="real">3.6000e+05</parameter>
<parameter name="record_configs" condition="int">0</parameter>
<parameter name="record_walkers" condition="int">1</parameter>
<parameter name="recordconfigs" condition="int">0</parameter>
<parameter name="recordwalkers" condition="int">1</parameter>
<parameter name="rewind" condition="int">0</parameter>
<parameter name="samples" condition="real">2.5600e+04</parameter>
<parameter name="samplesperthread" condition="real">1.6000e+03</parameter>
<parameter name="steps" condition="int">16</parameter>
<parameter name="stepsbetweensamples" condition="int">1</parameter>
<parameter name="store_configs" condition="int">0</parameter>
<parameter name="storeconfigs" condition="int">0</parameter>
<parameter name="sub_steps" condition="int">10</parameter>
<parameter name="substeps" condition="int">10</parameter>
<parameter name="tau" condition="au">3.0000e-01</parameter>
<parameter name="time_step" condition="au">3.0000e-01</parameter>
<parameter name="timestep" condition="au">3.0000e-01</parameter>
<parameter name="use_drift" condition="string">no</parameter>
<parameter name="usedrift" condition="string">no</parameter>
<parameter name="walkers" condition="int">4</parameter>
<parameter name="warmup_steps" condition="int">300</parameter>
<parameter name="warmupsteps" condition="int">300</parameter>
  DumpConfig==false Nothing (configurations, state) will be saved.
  Walker Samples are dumped every 1 steps.
</vmc>
  Set drift_modifier UNR parameter a = 1.0000e+00
  Set drift_modifier UNR parameter a = 1.0000e+00
<optimization-report>
<vmc stage="main" blocks="100">
  Cannot make clones again. Use existing 4 clones
  Initial partition of walkers 0 1 2 3 4 
  Using Particle by Particle moves
  Walker moves without drift
  Total Sample Size   =25600
  Walker distribution on root = 0 1 2 3 4 
  Using Locality Approximation
===== Memory Usage after the buffer registration =====
Available memory on node 0, free + buffers : 29899 MB
Memory footprint by rank 0 on node 0       : 88 MB
==================================================
====================================================
  SimpleFixedNodeBranch::finalize after a VMC block
    QMC counter        = 1
    time step          = 0.3
    reference energy   = -21.8066
    reference variance = 0.572652
====================================================
  Execution time = 2.3416e+01
</vmc>
<opt stage="setup">
  <log>
   Reading configurations from h5FileRoot opt.s001
  QMCCostFunction is created with 4 threads.
  Using Nonlocal PP in Opt: NonLocalECP
   Number of samples loaded to each thread : 1600 1600 1600 1600 
  VMC Eavg = -2.1656e+01
  VMC Evar = 1.0522e+00
  Total weights = 2.5600e+04
  Execution time = 1.0670e+01
  </log>
</opt>
<opt stage="main" walkers="25600">
  <log>

*****************************************
Building overlap and Hamiltonian matrices
*****************************************

Among totally 15 optimized parameters, largest LM parameter change : 1.1930e-01 at parameter 10

******************************************************************************
Init Cost =  -1.9385e+01    New Cost =  -1.9401e+01  Delta Cost =  -1.5643e-02
******************************************************************************

The new set of parameters is valid. Updating the trial wave function!

*****************************************************************************
Applying the update for shift_i =   1.0000e-02     and shift_s =   6.2500e-02
*****************************************************************************
  Execution time = 4.4543e+01
  </log>
  <optVariables href="opt.s001.opt.xml">
eC_0 -2.198431e-01 1 1  ON 0
eC_1 -2.006579e-01 1 1  ON 1
eC_2 -1.607216e-01 1 1  ON 2
eC_3 -1.027624e-01 1 1  ON 3
eC_4 -4.550101e-02 1 1  ON 4
uu_0  2.733659e-01 1 1  ON 5
uu_1  2.003183e-01 1 1  ON 6
uu_2  1.322696e-01 1 1  ON 7
uu_3  7.324467e-02 1 1  ON 8
uu_4  3.723880e-02 1 1  ON 9
ud_0  4.822687e-01 1 1  ON 10
ud_1  3.140584e-01 1 1  ON 11
ud_2  1.933759e-01 1 1  ON 12
ud_3  1.014228e-01 1 1  ON 13
ud_4  4.774863e-02 1 1  ON 14
  </optVariables>
   Restore the number of walkers to 4, removing 0 walkers.
</opt>
</optimization-report>
  QMC Execution time = 44.55 secs
  Reusing QMCFixedSampleLinearOptimize
 Using QMCCostFunction::QMCCostFunction
 Using Default Cost Function: Cost = <|E-E_ff|^2>

=========================================================
  Start QMCFixedSampleLinearOptimize
  File Root opt.s002 append = no 
=========================================================
  Skip QMCDriver::putQMCInfo 
  Resetting Properties of the walkers 1 x 14

=========================================================
  Start VMC
  File Root opt.s002 append = no 
=========================================================
Using existing walkers 
  Resetting Properties of the walkers 1 x 14

<vmc function="put">
  qmc_counter=2  my_counter=2
  time step      = 3.0000e-01
  blocks         = 100
  steps          = 16
  substeps       = 10
  current        = 0
  target samples = 2.5600e+04
  walkers/mpi    = 4

  stepsbetweensamples = 1
<parameter name="blocks" condition="int">100</parameter>
<parameter name="blocks_between_recompute" condition="int">0</parameter>
<parameter name="check_properties" condition="int">100</parameter>
<parameter name="checkproperties" condition="int">100</parameter>
<parameter name="current" condition="int">0</parameter>
<parameter name="dmcwalkersperthread" condition="real">1.6000e+03</parameter>
<parameter name="maxcpusecs" condition="real">3.6000e+05</parameter>
<parameter name="record_configs" condition="int">0</parameter>
<parameter name="record_walkers" condition="int">1</parameter>
<parameter name="recordconfigs" condition="int">0</parameter>
<parameter name="recordwalkers" condition="int">1</parameter>
<parameter name="rewind" condition="int">0</parameter>
<parameter name="samples" condition="real">2.5600e+04</parameter>
<parameter name="samplesperthread" condition="real">1.6000e+03</parameter>
<parameter name="steps" condition="int">16</parameter>
<parameter name="stepsbetweensamples" condition="int">1</parameter>
<parameter name="store_configs" condition="int">0</parameter>
<parameter name="storeconfigs" condition="int">0</parameter>
<parameter name="sub_steps" condition="int">10</parameter>
<parameter name="substeps" condition="int">10</parameter>
<parameter name="tau" condition="au">3.0000e-01</parameter>
<parameter name="time_step" condition="au">3.0000e-01</parameter>
<parameter name="timestep" condition="au">3.0000e-01</parameter>
<parameter name="use_drift" condition="string">no</parameter>
<parameter name="usedrift" condition="string">no</parameter>
<parameter name="walkers" condition="int">4</parameter>
<parameter name="warmup_steps" condition="int">300</parameter>
<parameter name="warmupsteps" condition="int">300</parameter>
  DumpConfig==false Nothing (configurations, state) will be saved.
  Walker Samples are dumped every 1 steps.
</vmc>
  Set drift_modifier UNR parameter a = 1.0000e+00
  Set drift_modifier UNR parameter a = 1.0000e+00
<optimization-report>
<vmc stage="main" blocks="100">
  Cannot make clones again. Use existing 4 clones
  Initial partition of walkers 0 1 2 3 4 
  Using Particle by Particle moves
  Walker moves without drift
  Total Sample Size   =25600
  Walker distribution on root = 0 1 2 3 4 
  Using Locality Approximation
===== Memory Usage after the buffer registration =====
Available memory on node 0, free + buffers : 29895 MB
Memory footprint by rank 0 on node 0       : 90 MB
==================================================
====================================================
  SimpleFixedNodeBranch::finalize after a VMC block
    QMC counter        = 2
    time step          = 0.3
    reference energy   = -21.6798
    reference variance = 0.945215
====================================================
  Execution time = 2.3280e+01
</vmc>
<opt stage="setup">
  <log>
   Reading configurations from h5FileRoot opt.s002
  QMCCostFunction is created with 4 threads.
  Using Nonlocal PP in Opt: NonLocalECP
   Number of samples loaded to each thread : 1600 1600 1600 1600 
  VMC Eavg = -2.1678e+01
  VMC Evar = 1.1648e+00
  Total weights = 2.5600e+04
  Execution time = 1.0581e+01
  </log>
</opt>
<opt stage="main" walkers="25600">
  <log>

*****************************************
Building overlap and Hamiltonian matrices
*****************************************

Among totally 15 optimized parameters, largest LM parameter change : 1.9882e-02 at parameter 5

******************************************************************************
Init Cost =  -1.9394e+01    New Cost =  -1.9392e+01  Delta Cost =   1.8105e-03
******************************************************************************

The new set of parameters is valid. Updating the trial wave function!

*****************************************************************************
Applying the update for shift_i =   1.0000e-02     and shift_s =   1.5625e-02
*****************************************************************************
  Execution time = 4.4279e+01
  </log>
  <optVariables href="opt.s002.opt.xml">
eC_0 -2.243517e-01 1 1  ON 0
eC_1 -2.061994e-01 1 1  ON 1
eC_2 -1.632400e-01 1 1  ON 2
eC_3 -1.023491e-01 1 1  ON 3
eC_4 -4.514091e-02 1 1  ON 4
uu_0  2.932477e-01 1 1  ON 5
uu_1  1.993101e-01 1 1  ON 6
uu_2  1.341416e-01 1 1  ON 7
uu_3  7.308743e-02 1 1  ON 8
uu_4  3.678922e-02 1 1  ON 9
ud_0  4.959199e-01 1 1  ON 10
ud_1  3.219287e-01 1 1  ON 11
ud_2  1.990771e-01 1 1  ON 12
ud_3  1.044876e-01 1 1  ON 13
ud_4  4.918768e-02 1 1  ON 14
  </optVariables>
   Restore the number of walkers to 4, removing 0 walkers.
</opt>
</optimization-report>
  QMC Execution time = 44.28 secs
Loop execution max-interations = 3
  Reusing QMCFixedSampleLinearOptimize
 Using QMCCostFunction::QMCCostFunction
 Using Default Cost Function: Cost = <|E-E_ff|^2>

=========================================================
  Start QMCFixedSampleLinearOptimize
  File Root opt.s003 append = no 
=========================================================
  Skip QMCDriver::putQMCInfo 
  Resetting Properties of the walkers 1 x 14

=========================================================
  Start VMC
  File Root opt.s003 append = no 
=========================================================
  Using the current 4 walkers.
  Total number of walkers: 1.6000e+01
  Total weight: 1.6000e+01
  Resetting Properties of the walkers 1 x 14

<vmc function="put">
  qmc_counter=0  my_counter=3
  time step      = 3.0000e-01
  blocks         = 100
  steps          = 16
  substeps       = 10
  current        = 0
  target samples = 2.5600e+04
  walkers/mpi    = 4

  stepsbetweensamples = 1
<parameter name="blocks" condition="int">100</parameter>
<parameter name="blocks_between_recompute" condition="int">0</parameter>
<parameter name="check_properties" condition="int">100</parameter>
<parameter name="checkproperties" condition="int">100</parameter>
<parameter name="current" condition="int">0</parameter>
<parameter name="dmcwalkersperthread" condition="real">1.6000e+03</parameter>
<parameter name="maxcpusecs" condition="real">3.6000e+05</parameter>
<parameter name="record_configs" condition="int">0</parameter>
<parameter name="record_walkers" condition="int">1</parameter>
<parameter name="recordconfigs" condition="int">0</parameter>
<parameter name="recordwalkers" condition="int">1</parameter>
<parameter name="rewind" condition="int">0</parameter>
<parameter name="samples" condition="real">2.5600e+04</parameter>
<parameter name="samplesperthread" condition="real">1.6000e+03</parameter>
<parameter name="steps" condition="int">16</parameter>
<parameter name="stepsbetweensamples" condition="int">1</parameter>
<parameter name="store_configs" condition="int">0</parameter>
<parameter name="storeconfigs" condition="int">0</parameter>
<parameter name="sub_steps" condition="int">10</parameter>
<parameter name="substeps" condition="int">10</parameter>
<parameter name="tau" condition="au">3.0000e-01</parameter>
<parameter name="time_step" condition="au">3.0000e-01</parameter>
<parameter name="timestep" condition="au">3.0000e-01</parameter>
<parameter name="use_drift" condition="string">no</parameter>
<parameter name="usedrift" condition="string">no</parameter>
<parameter name="walkers" condition="int">4</parameter>
<parameter name="warmup_steps" condition="int">300</parameter>
<parameter name="warmupsteps" condition="int">300</parameter>
  DumpConfig==false Nothing (configurations, state) will be saved.
  Walker Samples are dumped every 1 steps.
</vmc>
  Set drift_modifier UNR parameter a = 1.0000e+00
  Set drift_modifier UNR parameter a = 1.0000e+00
<optimization-report>
<vmc stage="main" blocks="100">
  Cannot make clones again. Use existing 4 clones
  Initial partition of walkers 0 1 2 3 4 
  Using Particle by Particle moves
  Walker moves without drift
  Total Sample Size   =25600
  Walker distribution on root = 0 1 2 3 4 
  Using Locality Approximation
===== Memory Usage after the buffer registration =====
Available memory on node 0, free + buffers : 29892 MB
Memory footprint by rank 0 on node 0       : 92 MB
==================================================
====================================================
  SimpleFixedNodeBranch::finalize after a VMC block
    QMC counter        = 3
    time step          = 0.3
    reference energy   = -21.4602
    reference variance = 1.3561
====================================================
  Execution time = 2.3270e+01
</vmc>
<opt stage="setup">
  <log>
   Reading configurations from h5FileRoot opt.s003
  QMCCostFunction is created with 4 threads.
  Using Nonlocal PP in Opt: NonLocalECP
   Number of samples loaded to each thread : 1600 1600 1600 1600 
  VMC Eavg = -2.1691e+01
  VMC Evar = 1.1985e+00
  Total weights = 2.5600e+04
  Execution time = 1.0539e+01
  </log>
</opt>
<opt stage="main" walkers="25600">
  <log>

*****************************************
Building overlap and Hamiltonian matrices
*****************************************

Among totally 15 optimized parameters, largest LM parameter change : 7.0754e-03 at parameter 5

******************************************************************************
Init Cost =  -1.9402e+01    New Cost =  -1.9403e+01  Delta Cost =  -4.5469e-04
******************************************************************************

The new set of parameters is valid. Updating the trial wave function!

*****************************************************************************
Applying the update for shift_i =   1.0000e-02     and shift_s =   3.9062e-03
*****************************************************************************
  Execution time = 4.4195e+01
  </log>
  <optVariables href="opt.s003.opt.xml">
eC_0 -2.268101e-01 1 1  ON 0
eC_1 -2.073073e-01 1 1  ON 1
eC_2 -1.666009e-01 1 1  ON 2
eC_3 -1.066337e-01 1 1  ON 3
eC_4 -4.719067e-02 1 1  ON 4
uu_0  3.003231e-01 1 1  ON 5
uu_1  2.027440e-01 1 1  ON 6
uu_2  1.362476e-01 1 1  ON 7
uu_3  7.438041e-02 1 1  ON 8
uu_4  3.830500e-02 1 1  ON 9
ud_0  4.901653e-01 1 1  ON 10
ud_1  3.177599e-01 1 1  ON 11
ud_2  1.972013e-01 1 1  ON 12
ud_3  1.030815e-01 1 1  ON 13
ud_4  4.815347e-02 1 1  ON 14
  </optVariables>
   Restore the number of walkers to 4, removing 0 walkers.
</opt>
</optimization-report>
  QMC Execution time = 44.2 secs
  Reusing QMCFixedSampleLinearOptimize
 Using QMCCostFunction::QMCCostFunction
 Using Default Cost Function: Cost = <|E-E_ff|^2>

=========================================================
  Start QMCFixedSampleLinearOptimize
  File Root opt.s004 append = no 
=========================================================
  Skip QMCDriver::putQMCInfo 
  Resetting Properties of the walkers 1 x 14

=========================================================
  Start VMC
  File Root opt.s004 append = no 
=========================================================
Using existing walkers 
  Resetting Properties of the walkers 1 x 14

<vmc function="put">
  qmc_counter=1  my_counter=4
  time step      = 3.0000e-01
  blocks         = 100
  steps          = 16
  substeps       = 10
  current        = 0
  target samples = 2.5600e+04
  walkers/mpi    = 4

  stepsbetweensamples = 1
<parameter name="blocks" condition="int">100</parameter>
<parameter name="blocks_between_recompute" condition="int">0</parameter>
<parameter name="check_properties" condition="int">100</parameter>
<parameter name="checkproperties" condition="int">100</parameter>
<parameter name="current" condition="int">0</parameter>
<parameter name="dmcwalkersperthread" condition="real">1.6000e+03</parameter>
<parameter name="maxcpusecs" condition="real">3.6000e+05</parameter>
<parameter name="record_configs" condition="int">0</parameter>
<parameter name="record_walkers" condition="int">1</parameter>
<parameter name="recordconfigs" condition="int">0</parameter>
<parameter name="recordwalkers" condition="int">1</parameter>
<parameter name="rewind" condition="int">0</parameter>
<parameter name="samples" condition="real">2.5600e+04</parameter>
<parameter name="samplesperthread" condition="real">1.6000e+03</parameter>
<parameter name="steps" condition="int">16</parameter>
<parameter name="stepsbetweensamples" condition="int">1</parameter>
<parameter name="store_configs" condition="int">0</parameter>
<parameter name="storeconfigs" condition="int">0</parameter>
<parameter name="sub_steps" condition="int">10</parameter>
<parameter name="substeps" condition="int">10</parameter>
<parameter name="tau" condition="au">3.0000e-01</parameter>
<parameter name="time_step" condition="au">3.0000e-01</parameter>
<parameter name="timestep" condition="au">3.0000e-01</parameter>
<parameter name="use_drift" condition="string">no</parameter>
<parameter name="usedrift" condition="string">no</parameter>
<parameter name="walkers" condition="int">4</parameter>
<parameter name="warmup_steps" condition="int">300</parameter>
<parameter name="warmupsteps" condition="int">300</parameter>
  DumpConfig==false Nothing (configurations, state) will be saved.
  Walker Samples are dumped every 1 steps.
</vmc>
  Set drift_modifier UNR parameter a = 1.0000e+00
  Set drift_modifier UNR parameter a = 1.0000e+00
<optimization-report>
<vmc stage="main" blocks="100">
  Cannot make clones again. Use existing 4 clones
  Initial partition of walkers 0 1 2 3 4 
  Using Particle by Particle moves
  Walker moves without drift
  Total Sample Size   =25600
  Walker distribution on root = 0 1 2 3 4 
  Using Locality Approximation
===== Memory Usage after the buffer registration =====
Available memory on node 0, free + buffers : 29890 MB
Memory footprint by rank 0 on node 0       : 93 MB
==================================================
====================================================
  SimpleFixedNodeBranch::finalize after a VMC block
    QMC counter        = 4
    time step          = 0.3
    reference energy   = -21.5222
    reference variance = 0.623226
====================================================
  Execution time = 2.3289e+01
</vmc>
<opt stage="setup">
  <log>
   Reading configurations from h5FileRoot opt.s004
  QMCCostFunction is created with 4 threads.
  Using Nonlocal PP in Opt: NonLocalECP
   Number of samples loaded to each thread : 1600 1600 1600 1600 
  VMC Eavg = -2.1679e+01
  VMC Evar = 1.2155e+00
  Total weights = 2.5600e+04
  Execution time = 1.0653e+01
  </log>
</opt>
<opt stage="main" walkers="25600">
  <log>

*****************************************
Building overlap and Hamiltonian matrices
*****************************************

Among totally 15 optimized parameters, largest LM parameter change : 4.5350e-03 at parameter 11

******************************************************************************
Init Cost =  -1.9390e+01    New Cost =  -1.9388e+01  Delta Cost =   2.1151e-03
******************************************************************************

The new set of parameters is valid. Updating the trial wave function!

*****************************************************************************
Applying the update for shift_i =   1.0000e-02     and shift_s =   3.9062e-03
*****************************************************************************
  Execution time = 4.4438e+01
  </log>
  <optVariables href="opt.s004.opt.xml">
eC_0 -2.263216e-01 1 1  ON 0
eC_1 -2.076247e-01 1 1  ON 1
eC_2 -1.658945e-01 1 1  ON 2
eC_3 -1.036055e-01 1 1  ON 3
eC_4 -4.495735e-02 1 1  ON 4
uu_0  3.047333e-01 1 1  ON 5
uu_1  2.062910e-01 1 1  ON 6
uu_2  1.375142e-01 1 1  ON 7
uu_3  7.569304e-02 1 1  ON 8
uu_4  3.901692e-02 1 1  ON 9
ud_0  4.929066e-01 1 1  ON 10
ud_1  3.222949e-01 1 1  ON 11
ud_2  1.975983e-01 1 1  ON 12
ud_3  1.041811e-01 1 1  ON 13
ud_4  4.960752e-02 1 1  ON 14
  </optVariables>
   Restore the number of walkers to 4, removing 0 walkers.
</opt>
</optimization-report>
  QMC Execution time = 44.44 secs
  Reusing QMCFixedSampleLinearOptimize
 Using QMCCostFunction::QMCCostFunction
 Using Default Cost Function: Cost = <|E-E_ff|^2>

=========================================================
  Start QMCFixedSampleLinearOptimize
  File Root opt.s005 append = no 
=========================================================
  Skip QMCDriver::putQMCInfo 
  Resetting Properties of the walkers 1 x 14

=========================================================
  Start VMC
  File Root opt.s005 append = no 
=========================================================
Using existing walkers 
  Resetting Properties of the walkers 1 x 14

<vmc function="put">
  qmc_counter=2  my_counter=5
  time step      = 3.0000e-01
  blocks         = 100
  steps          = 16
  substeps       = 10
  current        = 0
  target samples = 2.5600e+04
  walkers/mpi    = 4

  stepsbetweensamples = 1
<parameter name="blocks" condition="int">100</parameter>
<parameter name="blocks_between_recompute" condition="int">0</parameter>
<parameter name="check_properties" condition="int">100</parameter>
<parameter name="checkproperties" condition="int">100</parameter>
<parameter name="current" condition="int">0</parameter>
<parameter name="dmcwalkersperthread" condition="real">1.6000e+03</parameter>
<parameter name="maxcpusecs" condition="real">3.6000e+05</parameter>
<parameter name="record_configs" condition="int">0</parameter>
<parameter name="record_walkers" condition="int">1</parameter>
<parameter name="recordconfigs" condition="int">0</parameter>
<parameter name="recordwalkers" condition="int">1</parameter>
<parameter name="rewind" condition="int">0</parameter>
<parameter name="samples" condition="real">2.5600e+04</parameter>
<parameter name="samplesperthread" condition="real">1.6000e+03</parameter>
<parameter name="steps" condition="int">16</parameter>
<parameter name="stepsbetweensamples" condition="int">1</parameter>
<parameter name="store_configs" condition="int">0</parameter>
<parameter name="storeconfigs" condition="int">0</parameter>
<parameter name="sub_steps" condition="int">10</parameter>
<parameter name="substeps" condition="int">10</parameter>
<parameter name="tau" condition="au">3.0000e-01</parameter>
<parameter name="time_step" condition="au">3.0000e-01</parameter>
<parameter name="timestep" condition="au">3.0000e-01</parameter>
<parameter name="use_drift" condition="string">no</parameter>
<parameter name="usedrift" condition="string">no</parameter>
<parameter name="walkers" condition="int">4</parameter>
<parameter name="warmup_steps" condition="int">300</parameter>
<parameter name="warmupsteps" condition="int">300</parameter>
  DumpConfig==false Nothing (configurations, state) will be saved.
  Walker Samples are dumped every 1 steps.
</vmc>
  Set drift_modifier UNR parameter a = 1.0000e+00
  Set drift_modifier UNR parameter a = 1.0000e+00
<optimization-report>
<vmc stage="main" blocks="100">
  Cannot make clones again. Use existing 4 clones
  Initial partition of walkers 0 1 2 3 4 
  Using Particle by Particle moves
  Walker moves without drift
  Total Sample Size   =25600
  Walker distribution on root = 0 1 2 3 4 
  Using Locality Approximation
===== Memory Usage after the buffer registration =====
Available memory on node 0, free + buffers : 29888 MB
Memory footprint by rank 0 on node 0       : 95 MB
==================================================
====================================================
  SimpleFixedNodeBranch::finalize after a VMC block
    QMC counter        = 5
    time step          = 0.3
    reference energy   = -21.7374
    reference variance = 0.862287
====================================================
  Execution time = 2.3293e+01
</vmc>
<opt stage="setup">
  <log>
   Reading configurations from h5FileRoot opt.s005
  QMCCostFunction is created with 4 threads.
  Using Nonlocal PP in Opt: NonLocalECP
   Number of samples loaded to each thread : 1600 1600 1600 1600 
  VMC Eavg = -2.1674e+01
  VMC Evar = 1.2187e+00
  Total weights = 2.5600e+04
  Execution time = 1.0661e+01
  </log>
</opt>
<opt stage="main" walkers="25600">
  <log>

*****************************************
Building overlap and Hamiltonian matrices
*****************************************

Among totally 15 optimized parameters, largest LM parameter change : 7.1759e-03 at parameter 5

******************************************************************************
Init Cost =  -1.9385e+01    New Cost =  -1.9387e+01  Delta Cost =  -2.1095e-03
******************************************************************************

The new set of parameters is valid. Updating the trial wave function!

*****************************************************************************
Applying the update for shift_i =   1.0000e-02     and shift_s =   3.9062e-03
*****************************************************************************
  Execution time = 4.4341e+01
  </log>
  <optVariables href="opt.s005.opt.xml">
eC_0 -2.268521e-01 1 1  ON 0
eC_1 -2.075437e-01 1 1  ON 1
eC_2 -1.660424e-01 1 1  ON 2
eC_3 -1.033018e-01 1 1  ON 3
eC_4 -4.643197e-02 1 1  ON 4
uu_0  2.975575e-01 1 1  ON 5
uu_1  2.067721e-01 1 1  ON 6
uu_2  1.380588e-01 1 1  ON 7
uu_3  7.421792e-02 1 1  ON 8
uu_4  3.714960e-02 1 1  ON 9
ud_0  4.943434e-01 1 1  ON 10
ud_1  3.221503e-01 1 1  ON 11
ud_2  1.989303e-01 1 1  ON 12
ud_3  1.042405e-01 1 1  ON 13
ud_4  4.912289e-02 1 1  ON 14
  </optVariables>
   Restore the number of walkers to 4, removing 0 walkers.
</opt>
</optimization-report>
  QMC Execution time = 44.34 secs
  Total Execution time = 265.8 secs

=========================================================
  A new xml input file : opt.s005.cont.xml
