
     Program PWSCF v.6.3MaX starts on  7May2019 at 12: 5:36 

     This program is part of the open-source Quantum ESPRESSO suite
     for quantum simulation of materials; please cite
         "P. Giannozzi et al., J. Phys.:Condens. Matter 21 395502 (2009);
         "P. Giannozzi et al., J. Phys.:Condens. Matter 29 465901 (2017);
          URL http://www.quantum-espresso.org", 
     in publications or presentations arising from this work. More details at
     http://www.quantum-espresso.org/quote

     Parallel version (MPI), running on    16 processors

     MPI processes distributed on     1 nodes
     R & G space division:  proc/nbgrp/npool/nimage =      16
     Reading input from scf.in
     Message from routine read_cards :
     DEPRECATED: no units specified in CELL_PARAMETERS card

     Current dimensions of program PWSCF are:
     Max number of different atomic species (ntypx) = 10
     Max number of k-points (npk) =  40000
     Max angular momentum in pseudopotentials (lmaxx) =  3

     IMPORTANT: XC functional enforced from input :
     Exchange-correlation      = LDA ( 1  1  0  0 0 0)
     Any further DFT definition will be discarded
     Please, verify this is what you really want

               file C.BFD.upf: wavefunction(s)  0s 0p renormalized

     Subspace diagonalization in iterative solution of the eigenvalue problem:
     a serial algorithm will be used


     Parallelization info
     --------------------
     sticks:   dense  smooth     PW     G-vecs:    dense   smooth      PW
     Min          78      78     22                 1834     1834     284
     Max          79      79     23                 1837     1837     287
     Sum        1261    1261    361                29363    29363    4573



     bravais-lattice index     =            0
     lattice parameter (alat)  =       1.0000  a.u.
     unit-cell volume          =      76.7611 (a.u.)^3
     number of atoms/cell      =            2
     number of atomic types    =            1
     number of electrons       =         8.00
     number of Kohn-Sham states=            4
     kinetic-energy cutoff     =     200.0000  Ry
     charge density cutoff     =     800.0000  Ry
     convergence threshold     =      1.0E-08
     mixing beta               =       0.7000
     number of iterations used =            8  plain     mixing
     Exchange-correlation      = LDA ( 1  1  0  0 0 0)

     celldm(1)=   1.000000  celldm(2)=   0.000000  celldm(3)=   0.000000
     celldm(4)=   0.000000  celldm(5)=   0.000000  celldm(6)=   0.000000

     crystal axes: (cart. coord. in units of alat)
               a(1) = (   3.373161   3.373161  -0.000000 )  
               a(2) = (   0.000000   3.373161   3.373161 )  
               a(3) = (   3.373161   0.000000   3.373161 )  

     reciprocal axes: (cart. coord. in units 2 pi/alat)
               b(1) = (  0.148229  0.148229 -0.148229 )  
               b(2) = ( -0.148229  0.148229  0.148229 )  
               b(3) = (  0.148229 -0.148229  0.148229 )  


     PseudoPot. # 1 for C  read from file:
     ./C.BFD.upf
     MD5 check sum: 44213404c8404db625590c8337a04dfd
     Pseudo is Norm-conserving, Zval =  4.0
     Generated by new atomic code, or converted to UPF format
     Using radial grid of 2000 points,  1 beta functions with: 
                l(1) =   0

     atomic species   valence    mass     pseudopotential
        C              4.00    12.01100     C ( 1.00)

     24 Sym. Ops. (no inversion) found
          (note: 24 additional sym.ops. were found but ignored
           their fractional translations are incommensurate with FFT grid)


   Cartesian axes

     site n.     atom                  positions (alat units)
         1           C   tau(   1) = (   0.0000000   0.0000000   0.0000000  )
         2           C   tau(   2) = (   1.6865806   1.6865806   1.6865806  )

     number of k points=     8
                       cart. coord. in units 2pi/alat
        k(    1) = (   0.0000000   0.0000000   0.0000000), wk =   0.0312500
        k(    2) = (   0.0370572  -0.0370572   0.0370572), wk =   0.2500000
        k(    3) = (  -0.0741145   0.0741145  -0.0741145), wk =   0.1250000
        k(    4) = (   0.0000000   0.0000000   0.0741145), wk =   0.1875000
        k(    5) = (  -0.1111717   0.1111717  -0.0370572), wk =   0.7500000
        k(    6) = (  -0.0741145   0.0741145   0.0000000), wk =   0.3750000
        k(    7) = (   0.0000000   0.0000000  -0.1482289), wk =   0.0937500
        k(    8) = (   0.0741145   0.0000000  -0.1482289), wk =   0.1875000

     Dense  grid:    29363 G-vectors     FFT dimensions: (  45,  45,  45)

     Estimated max dynamical RAM per process >       1.44 MB

     Estimated total dynamical RAM >      23.05 MB

     Initial potential from superposition of free atoms

     starting charge    0.63662, renormalised to    8.00000
     Starting wfcs are    8 randomized atomic wfcs

     total cpu time spent up to now is        0.7 secs

     Self-consistent Calculation

     iteration #  1     ecut=   200.00 Ry     beta= 0.70
     Davidson diagonalization with overlap
     ethr =  1.00E-02,  avg # of iterations =  2.0

     total cpu time spent up to now is        0.8 secs

     total energy              =     -22.74011864 Ry
     Harris-Foulkes estimate   =     -22.80783163 Ry
     estimated scf accuracy    <       0.12877923 Ry

     iteration #  2     ecut=   200.00 Ry     beta= 0.70
     Davidson diagonalization with overlap
     ethr =  1.61E-03,  avg # of iterations =  2.0

     total cpu time spent up to now is        0.8 secs

     total energy              =     -22.75217918 Ry
     Harris-Foulkes estimate   =     -22.75264875 Ry
     estimated scf accuracy    <       0.00188226 Ry

     iteration #  3     ecut=   200.00 Ry     beta= 0.70
     Davidson diagonalization with overlap
     ethr =  2.35E-05,  avg # of iterations =  2.0

     total cpu time spent up to now is        0.9 secs

     total energy              =     -22.75250110 Ry
     Harris-Foulkes estimate   =     -22.75251625 Ry
     estimated scf accuracy    <       0.00007794 Ry

     iteration #  4     ecut=   200.00 Ry     beta= 0.70
     Davidson diagonalization with overlap
     ethr =  9.74E-07,  avg # of iterations =  2.8

     total cpu time spent up to now is        0.9 secs

     total energy              =     -22.75252346 Ry
     Harris-Foulkes estimate   =     -22.75252463 Ry
     estimated scf accuracy    <       0.00000225 Ry

     iteration #  5     ecut=   200.00 Ry     beta= 0.70
     Davidson diagonalization with overlap
     ethr =  2.82E-08,  avg # of iterations =  2.6

     total cpu time spent up to now is        1.0 secs

     total energy              =     -22.75252415 Ry
     Harris-Foulkes estimate   =     -22.75252415 Ry
     estimated scf accuracy    <       0.00000002 Ry

     iteration #  6     ecut=   200.00 Ry     beta= 0.70
     Davidson diagonalization with overlap
     ethr =  2.00E-10,  avg # of iterations =  3.4

     total cpu time spent up to now is        1.1 secs

     End of self-consistent calculation

          k = 0.0000 0.0000 0.0000 (  3695 PWs)   bands (ev):

    -8.0884  13.2872  13.2872  13.2872

          k = 0.0371-0.0371 0.0371 (  3660 PWs)   bands (ev):

    -6.3852   6.6537  11.5269  11.5269

          k =-0.0741 0.0741-0.0741 (  3648 PWs)   bands (ev):

    -2.2725  -0.1852  10.4705  10.4705

          k = 0.0000 0.0000 0.0741 (  3655 PWs)   bands (ev):

    -5.8207   8.7849   9.1209   9.1209

          k =-0.1112 0.1112-0.0371 (  3659 PWs)   bands (ev):

    -2.0874   2.4834   6.4946   8.3655

          k =-0.0741 0.0741 0.0000 (  3669 PWs)   bands (ev):

    -3.6435   4.5917   5.5917  10.2514

          k = 0.0000 0.0000-0.1482 (  3692 PWs)   bands (ev):

     0.5743   0.5744   6.9315   6.9315

          k = 0.0741 0.0000-0.1482 (  3676 PWs)   bands (ev):

     1.4072   1.4073   4.8339   4.8339

     highest occupied level (ev):    13.2872

!    total energy              =     -22.75252416 Ry
     Harris-Foulkes estimate   =     -22.75252417 Ry
     estimated scf accuracy    <          3.4E-09 Ry

     The total energy is the sum of the following terms:

     one-electron contribution =       7.94178408 Ry
     hartree contribution      =       1.91341945 Ry
     xc contribution           =      -7.05639324 Ry
     ewald contribution        =     -25.55133445 Ry

     convergence has been achieved in   6 iterations

     Writing output data file pwscf.save/

     init_run     :      0.09s CPU      0.15s WALL (       1 calls)
     electrons    :      0.20s CPU      0.41s WALL (       1 calls)

     Called by init_run:
     wfcinit      :      0.02s CPU      0.04s WALL (       1 calls)
     potinit      :      0.01s CPU      0.03s WALL (       1 calls)
     hinit0       :      0.04s CPU      0.06s WALL (       1 calls)

     Called by electrons:
     c_bands      :      0.17s CPU      0.33s WALL (       6 calls)
     sum_band     :      0.03s CPU      0.05s WALL (       6 calls)
     v_of_rho     :      0.01s CPU      0.01s WALL (       7 calls)
     mix_rho      :      0.00s CPU      0.01s WALL (       6 calls)

     Called by c_bands:
     init_us_2    :      0.00s CPU      0.00s WALL (     104 calls)
     cegterg      :      0.16s CPU      0.32s WALL (      48 calls)

     Called by sum_band:

     Called by *egterg:
     h_psi        :      0.15s CPU      0.29s WALL (     174 calls)
     g_psi        :      0.00s CPU      0.00s WALL (     118 calls)
     cdiaghg      :      0.01s CPU      0.02s WALL (     166 calls)

     Called by h_psi:
     h_psi:pot    :      0.15s CPU      0.29s WALL (     174 calls)
     h_psi:calbec :      0.01s CPU      0.01s WALL (     174 calls)
     vloc_psi     :      0.14s CPU      0.28s WALL (     174 calls)
     add_vuspsi   :      0.00s CPU      0.00s WALL (     174 calls)

     General routines
     calbec       :      0.00s CPU      0.01s WALL (     174 calls)
     fft          :      0.01s CPU      0.03s WALL (      21 calls)
     ffts         :      0.00s CPU      0.00s WALL (       6 calls)
     fftw         :      0.15s CPU      0.31s WALL (    1444 calls)

     Parallel routines
     fft_scatt_xy :      0.02s CPU      0.02s WALL (    1471 calls)
     fft_scatt_yz :      0.06s CPU      0.23s WALL (    1471 calls)

     PWSCF        :     0.65s CPU         1.14s WALL


   This run was terminated on:  12: 5:37   7May2019            

=------------------------------------------------------------------------------=
   JOB DONE.
=------------------------------------------------------------------------------=
