  Input file(s): Opt.xml 

=====================================================
                    QMCPACK 3.7.9

       (c) Copyright 2003-  QMCPACK developers

                    Please cite:
 J. Kim et al. J. Phys. Cond. Mat. 30 195901 (2018)
      https://doi.org/10.1088/1361-648X/aab9c3

  Git branch: develop
  Last git commit: f95f17d2abb3cf3304553f3fd54aac3c712a1278
  Last git commit date: Thu May 9 13:52:50 2019 -0500
  Last git commit subject: Merge pull request #1591 from jtkrogel/nexus_workshop2
=====================================================
  Global options 

  Total number of MPI ranks = 256
  Number of MPI groups      = 1
  MPI group ID              = 0
  Number of ranks in group  = 256
  MPI ranks per node        = 1
  OMP 1st level threads     = 32
  OMP nested threading disabled or only 1 thread on the 2nd level

  Precision used in this calculation, see definitions in the manual:
  Base precision      = double
  Full precision      = double

  Structure-of-arrays (SoA) optimization enabled

  Input XML = Opt.xml

  Project = H2O-Tr6
  date    = 2019-05-12 22:54:13 UTC
  host    = Q02-I3-J01.vesta.itd

 Random Number
 -------------
  Offset for the random number seeds based on time: 21

  Range of prime numbers to use as seeds over processors and threads = 83-84263


 Particle Set 
 ------------
  Name: ion0
  All the species have the same mass 1
  Particle set size: 3

 Particle Set 
 ------------
  Name: e
  All the species have the same mass 1
  Particle set size: 10

 Wavefunction setup: 
 ------------------- 
  Name: psi0
  LCAO: SoaAtomicBasisSet<MultiQuintic,0>
Reading BasisSet from HDF5 file:../H2O-Tr6.orbs.h5
<input node="atomicBasisSet" name="Gaussian" expandYlm="Gamess" angular="cartesian" elementType="H" normalized="no" type="Numerical" expM="0" />
  AO BasisSet for H
   Angular momentum expanded in cartesian functions x^lx y^ly z^lz according to Gamess
   Grid is created by the input paremters in h5
    Using log grid ri = 1e-06 rf = 100 npts = 1001
   R(n,l,m,s) 0 0 0 0
   R(n,l,m,s) 1 0 0 0
   R(n,l,m,s) 2 0 0 0
   R(n,l,m,s) 3 1 0 0
   R(n,l,m,s) 4 1 0 0
   R(n,l,m,s) 5 2 0 0
Expanding Ylm (angular function) according to Gamess using cartesian gaussians
Adding 1 cartesian gaussian orbitals for l= 0
Adding 1 cartesian gaussian orbitals for l= 0
Adding 1 cartesian gaussian orbitals for l= 0
Adding 3 cartesian gaussian orbitals for l= 1
Adding 3 cartesian gaussian orbitals for l= 1
Adding 6 cartesian gaussian orbitals for l= 2
  Setting cutoff radius 11.1686

   Maximum Angular Momentum  = 2
   Number of Radial functors = 6
   Basis size                = 15

<input node="atomicBasisSet" name="Gaussian" expandYlm="Gamess" angular="cartesian" elementType="O" normalized="no" type="Numerical" expM="0" />
  AO BasisSet for O
   Angular momentum expanded in cartesian functions x^lx y^ly z^lz according to Gamess
   Grid is created by the input paremters in h5
    Using log grid ri = 1e-06 rf = 100 npts = 1001
   R(n,l,m,s) 0 0 0 0
   R(n,l,m,s) 1 0 0 0
   R(n,l,m,s) 2 0 0 0
   R(n,l,m,s) 3 0 0 0
   R(n,l,m,s) 4 0 0 0
   R(n,l,m,s) 5 0 0 0
   R(n,l,m,s) 6 1 0 0
   R(n,l,m,s) 7 1 0 0
   R(n,l,m,s) 8 1 0 0
   R(n,l,m,s) 9 1 0 0
   R(n,l,m,s) 10 1 0 0
   R(n,l,m,s) 11 2 0 0
   R(n,l,m,s) 12 2 0 0
   R(n,l,m,s) 13 2 0 0
   R(n,l,m,s) 14 3 0 0
Expanding Ylm (angular function) according to Gamess using cartesian gaussians
Adding 1 cartesian gaussian orbitals for l= 0
Adding 1 cartesian gaussian orbitals for l= 0
Adding 1 cartesian gaussian orbitals for l= 0
Adding 1 cartesian gaussian orbitals for l= 0
Adding 1 cartesian gaussian orbitals for l= 0
Adding 1 cartesian gaussian orbitals for l= 0
Adding 3 cartesian gaussian orbitals for l= 1
Adding 3 cartesian gaussian orbitals for l= 1
Adding 3 cartesian gaussian orbitals for l= 1
Adding 3 cartesian gaussian orbitals for l= 1
Adding 3 cartesian gaussian orbitals for l= 1
Adding 6 cartesian gaussian orbitals for l= 2
Adding 6 cartesian gaussian orbitals for l= 2
Adding 6 cartesian gaussian orbitals for l= 2
Adding 10 cartesian gaussian orbitals for l= 3
  Setting cutoff radius 7.72681

   Maximum Angular Momentum  = 3
   Number of Radial functors = 15
   Basis size                = 49

  Created SPOSet builder named 'LCAOBSet' of type molecularorbital
Creating SPOSet in SlaterDetBuilder::put(xmlNodePtr cur).
spo_name = spo-up
  Building SPOSet 'spo-up' with 'LCAOBSet' basis set.
Reading cusp info from : ../CuspCorrection/spo-up.cuspInfo.xml
Found precomputed cusp data for spo set: spo-up
Creating SPOSet in SlaterDetBuilder::put(xmlNodePtr cur).
spo_name = spo-dn
  Building SPOSet 'spo-dn' with 'LCAOBSet' basis set.
Reading cusp info from : ../CuspCorrection/spo-dn.cuspInfo.xml
Found precomputed cusp data for spo set: spo-dn
Using Bryan's algorithm for MultiSlaterDeterminant expansion. 
Creating base determinant (up) for MSD expansion. 
Creating base determinant (down) for MSD expansion. 
Found Multideterminants in H5 File
Found determinant list. 
Reading CI expansion from HDF5:../H2O-Tr6.orbs.h5
 Done reading CIs from H5!!
 Sorting unique CIs
 Done Sorting unique CIs
Found 44694 terms in the MSD expansion.
Norm of ci vector (sum of ci^2): 1
Found 821 unique up determinants.
Found 822 unique down determinants.
Number of terms in pairs array: 272
Number of terms in pairs array: 272
CI coefficients are not optimizable. 
  FermionWF = MultiSlaterDeterminantFast

   Jastrow
   -------
    Name: J2   Type: Two-Body   Function: Bspline

    Radial function for species: u - u
     Number of parameters: 20
     Cusp: -0.25
     Cutoff radius: 10

      Name         Value Type Recompute Use Index
     ----- ------------- ---- --------- --- -----
      uu_0  0.000000e+00    1         1  ON     0
      uu_1  0.000000e+00    1         1  ON     1
      uu_2  0.000000e+00    1         1  ON     2
      uu_3  0.000000e+00    1         1  ON     3
      uu_4  0.000000e+00    1         1  ON     4
      uu_5  0.000000e+00    1         1  ON     5
      uu_6  0.000000e+00    1         1  ON     6
      uu_7  0.000000e+00    1         1  ON     7
      uu_8  0.000000e+00    1         1  ON     8
      uu_9  0.000000e+00    1         1  ON     9
     uu_10  0.000000e+00    1         1  ON    10
     uu_11  0.000000e+00    1         1  ON    11
     uu_12  0.000000e+00    1         1  ON    12
     uu_13  0.000000e+00    1         1  ON    13
     uu_14  0.000000e+00    1         1  ON    14
     uu_15  0.000000e+00    1         1  ON    15
     uu_16  0.000000e+00    1         1  ON    16
     uu_17  0.000000e+00    1         1  ON    17
     uu_18  0.000000e+00    1         1  ON    18
     uu_19  0.000000e+00    1         1  ON    19

    Radial function for species: u - d
     Number of parameters: 20
     Cusp: -0.5
     Cutoff radius: 10

      Name         Value Type Recompute Use Index
     ----- ------------- ---- --------- --- -----
      ud_0  0.000000e+00    1         1  ON     0
      ud_1  0.000000e+00    1         1  ON     1
      ud_2  0.000000e+00    1         1  ON     2
      ud_3  0.000000e+00    1         1  ON     3
      ud_4  0.000000e+00    1         1  ON     4
      ud_5  0.000000e+00    1         1  ON     5
      ud_6  0.000000e+00    1         1  ON     6
      ud_7  0.000000e+00    1         1  ON     7
      ud_8  0.000000e+00    1         1  ON     8
      ud_9  0.000000e+00    1         1  ON     9
     ud_10  0.000000e+00    1         1  ON    10
     ud_11  0.000000e+00    1         1  ON    11
     ud_12  0.000000e+00    1         1  ON    12
     ud_13  0.000000e+00    1         1  ON    13
     ud_14  0.000000e+00    1         1  ON    14
     ud_15  0.000000e+00    1         1  ON    15
     ud_16  0.000000e+00    1         1  ON    16
     ud_17  0.000000e+00    1         1  ON    17
     ud_18  0.000000e+00    1         1  ON    18
     ud_19  0.000000e+00    1         1  ON    19


   Jastrow
   -------
    Name: J1   Type: One-Body   Function: Bspline

    Radial function for element: H
     Number of parameters: 10
     Cusp: 0
     Cutoff radius: 5

     Name         Value Type Recompute Use Index
     ---- ------------- ---- --------- --- -----
     eH_0  0.000000e+00    1         1  ON     0
     eH_1  0.000000e+00    1         1  ON     1
     eH_2  0.000000e+00    1         1  ON     2
     eH_3  0.000000e+00    1         1  ON     3
     eH_4  0.000000e+00    1         1  ON     4
     eH_5  0.000000e+00    1         1  ON     5
     eH_6  0.000000e+00    1         1  ON     6
     eH_7  0.000000e+00    1         1  ON     7
     eH_8  0.000000e+00    1         1  ON     8
     eH_9  0.000000e+00    1         1  ON     9

    Radial function for element: O
     Number of parameters: 10
     Cusp: 0
     Cutoff radius: 5

     Name         Value Type Recompute Use Index
     ---- ------------- ---- --------- --- -----
     eO_0  0.000000e+00    1         1  ON     0
     eO_1  0.000000e+00    1         1  ON     1
     eO_2  0.000000e+00    1         1  ON     2
     eO_3  0.000000e+00    1         1  ON     3
     eO_4  0.000000e+00    1         1  ON     4
     eO_5  0.000000e+00    1         1  ON     5
     eO_6  0.000000e+00    1         1  ON     6
     eO_7  0.000000e+00    1         1  ON     7
     eO_8  0.000000e+00    1         1  ON     8
     eO_9  0.000000e+00    1         1  ON     9

  QMCHamiltonian::addOperator Kinetic to H, physical Hamiltonian 
  QMCHamiltonian::addOperator ElecElec to H, physical Hamiltonian 
QMCHamiltonian::addOperatorType added type coulomb named ElecElec
  QMCHamiltonian::addOperator IonIon to H, physical Hamiltonian 
QMCHamiltonian::addOperatorType added type coulomb named IonIon
  QMCHamiltonian::addOperator IonElec to H, physical Hamiltonian 
QMCHamiltonian::addOperatorType added type coulomb named IonElec

  QMCHamiltonian::add2WalkerProperty added
    4 to P::PropertyList 
    0 to P::Collectables 
    starting Index of the observables in P::PropertyList = 9
ParticleSetPool::randomize 
<init source="ion0" target="e">
</init>
  Initialization Execution time = 7.57 secs
=========================================================
 Summary of QMC systems 
=========================================================
ParticleSetPool has: 

  ParticleSet 'e' contains 10 particles :  u(5) d(5)

    u  5.6442347696e-01 -1.5253130418e-01 -2.0529866065e-01
    u  6.6398346154e-01  2.2560604490e-01  4.0156872562e-01
    u  1.8958456181e-01  4.1548815981e-01 -3.4008667508e-01
    u  6.7436795267e-01  2.1363512136e-01  3.7569545484e-01
    u  2.4961051693e-01  1.5547852877e+00 -1.5548546037e+00
    d -4.1373164598e-01  3.3779684078e-01 -2.6706505085e-01
    d  2.0926558447e-01  5.2734858383e-01 -2.2805604645e-01
    d  2.6329678453e-01 -3.7783449525e-02  8.9500337366e-01
    d -2.6283667306e-01 -5.2610110280e-01  6.4388760389e-01
    d -3.2527054898e-01 -9.0890046527e-01 -5.0475319077e-01

  Distance table for similar particles (A-A):
    source/target: e
    Using structure-of-arrays (SoA) data layout
    Distance computations use open boundary conditions in 3D.

  Distance table for dissimilar particles (A-B):
    source: ion0  target: e
    Using structure-of-arrays (SoA) data layout
    Distance computations use open boundary conditions in 3D.


  ParticleSet 'ion0' contains 3 particles :  H(2) O(1)

    H  0.0000000000e+00  1.4309006215e+00 -8.8665949765e-01
    H  0.0000000000e+00 -1.4309006215e+00 -8.8665949765e-01
    O  0.0000000000e+00  0.0000000000e+00  2.2166487441e-01

  Distance table for similar particles (A-A):
    source/target: ion0
    Using structure-of-arrays (SoA) data layout
    Distance computations use open boundary conditions in 3D.


  Hamiltonian h0
  Kinetic         Kinetic energy
  ElecElec        CoulombAA source/target e

  IonIon          CoulombAA source/target ion0

  IonElec         CoulombAB source=ion0



=========================================================
  Start VMC
  File Root H2O-Tr6.s000 append = no 
=========================================================
  Adding 32 walkers to 0 existing sets
  Total number of walkers: 8.1920000000e+03
  Total weight: 8.1920000000e+03
  Resetting Properties of the walkers 1 x 13

<vmc function="put">
  qmc_counter=0  my_counter=0
  time step      = 5.0000000000e-01
  blocks         = 10
  steps          = 1
  substeps       = 5
  current        = 0
  target samples = 8.1920000000e+03
  walkers/mpi    = 32

  stepsbetweensamples = 10
<parameter name="blocks" condition="int">10</parameter>
<parameter name="blocks_between_recompute" condition="int">0</parameter>
<parameter name="check_properties" condition="int">100</parameter>
<parameter name="checkproperties" condition="int">100</parameter>
<parameter name="current" condition="int">0</parameter>
<parameter name="dmcwalkersperthread" condition="real">1.0000000000e+00</parameter>
<parameter name="maxcpusecs" condition="real">3.6000000000e+05</parameter>
<parameter name="record_configs" condition="int">0</parameter>
<parameter name="record_walkers" condition="int">10</parameter>
<parameter name="recordconfigs" condition="int">0</parameter>
<parameter name="recordwalkers" condition="int">10</parameter>
<parameter name="rewind" condition="int">0</parameter>
<parameter name="samples" condition="real">8.1920000000e+03</parameter>
<parameter name="samplesperthread" condition="real">1.0000000000e+00</parameter>
<parameter name="steps" condition="int">1</parameter>
<parameter name="stepsbetweensamples" condition="int">10</parameter>
<parameter name="store_configs" condition="int">0</parameter>
<parameter name="storeconfigs" condition="int">0</parameter>
<parameter name="sub_steps" condition="int">5</parameter>
<parameter name="substeps" condition="int">5</parameter>
<parameter name="tau" condition="au">5.0000000000e-01</parameter>
<parameter name="time_step" condition="au">5.0000000000e-01</parameter>
<parameter name="timestep" condition="au">5.0000000000e-01</parameter>
<parameter name="use_drift" condition="string">no</parameter>
<parameter name="usedrift" condition="string">no</parameter>
<parameter name="walkers" condition="int">32</parameter>
<parameter name="warmup_steps" condition="int">20</parameter>
<parameter name="warmupsteps" condition="int">20</parameter>
  DumpConfig==false Nothing (configurations, state) will be saved.
  Walker Samples are dumped every 10 steps.
</vmc>
  Set drift_modifier UNR parameter a = 1.0000000000e+00
  CloneManager::makeClones makes 32 clones for W/Psi/H.
  Cloning methods for both Psi and H are used
===== Memory Usage before cloning =====
Allocated heap: 512.00 MB, avail. heap: 15743.98 MB
Allocated stack: 0.02 MB, avail. stack: 15743.98 MB
==================================================
===== Memory Usage after cloning =====
Allocated heap: 512.00 MB, avail. heap: 15743.98 MB
Allocated stack: 0.02 MB, avail. stack: 15743.98 MB
==================================================
  Initial partition of walkers 0 1 2 3 4 5 6 7 8 9 10 11 12 13 14 15 16 17 18 19 20 21 22 23 24 25 26 27 28 29 30 31 32 

  Using Particle by Particle moves
  Walker moves without drift
  Total Sample Size   =8192
  Walker distribution on root = 0 1 2 3 4 5 6 7 8 9 10 11 12 13 14 15 16 17 18 19 20 21 22 23 24 25 26 27 28 29 30 31 32 
===== Memory Usage after the buffer registration =====
Allocated heap: 512.00 MB, avail. heap: 15743.98 MB
Allocated stack: 0.02 MB, avail. stack: 15743.98 MB
==================================================
  Anonymous Buffer size per walker : 306792 Bytes.
MEMORY increase 9 MB VMC::resetRun
====================================================
  SimpleFixedNodeBranch::finalize after a VMC block
    QMC counter        = 0
    time step          = 0.5
    reference energy   = -76.2798
    reference variance = 4.76236
====================================================
  QMC Execution time = 4.0788e+00 secs
Loop execution max-interations = 4

=========================================================
  Start QMCFixedSampleLinearOptimize
  File Root H2O-Tr6.s001 append = no 
=========================================================
  Skip QMCDriver::putQMCInfo 
  Resetting Properties of the walkers 1 x 13

=========================================================
  Start VMC
  File Root H2O-Tr6.s001 append = no 
=========================================================
  Using the current 32 walkers.
  Total number of walkers: 8.1920e+03
  Total weight: 8.1920e+03
  Resetting Properties of the walkers 1 x 13

<vmc function="put">
  qmc_counter=0  my_counter=0
  time step      = 5.0000e-01
  blocks         = 40
  steps          = 1
  substeps       = 5
  current        = 0
  target samples = 8.0000e+04
  walkers/mpi    = 32

  stepsbetweensamples = 4
<parameter name="blocks" condition="int">40</parameter>
<parameter name="blocks_between_recompute" condition="int">0</parameter>
<parameter name="check_properties" condition="int">100</parameter>
<parameter name="checkproperties" condition="int">100</parameter>
<parameter name="current" condition="int">0</parameter>
<parameter name="dmcwalkersperthread" condition="real">1.0000e+01</parameter>
<parameter name="maxcpusecs" condition="real">3.6000e+05</parameter>
<parameter name="record_configs" condition="int">0</parameter>
<parameter name="record_walkers" condition="int">4</parameter>
<parameter name="recordconfigs" condition="int">0</parameter>
<parameter name="recordwalkers" condition="int">4</parameter>
<parameter name="rewind" condition="int">0</parameter>
<parameter name="samples" condition="real">8.0000e+04</parameter>
<parameter name="samplesperthread" condition="real">1.0000e+01</parameter>
<parameter name="steps" condition="int">1</parameter>
<parameter name="stepsbetweensamples" condition="int">4</parameter>
<parameter name="store_configs" condition="int">0</parameter>
<parameter name="storeconfigs" condition="int">0</parameter>
<parameter name="sub_steps" condition="int">5</parameter>
<parameter name="substeps" condition="int">5</parameter>
<parameter name="tau" condition="au">5.0000e-01</parameter>
<parameter name="time_step" condition="au">5.0000e-01</parameter>
<parameter name="timestep" condition="au">5.0000e-01</parameter>
<parameter name="use_drift" condition="string">no</parameter>
<parameter name="usedrift" condition="string">no</parameter>
<parameter name="walkers" condition="int">32</parameter>
<parameter name="warmup_steps" condition="int">2</parameter>
<parameter name="warmupsteps" condition="int">2</parameter>
  DumpConfig==false Nothing (configurations, state) will be saved.
  Walker Samples are dumped every 4 steps.
</vmc>
    Restarting, cummulative properties:
      energy     = -7.6280e+01
      variance   = 0.0000e+00
      r2accepted = 1.0000e-10
      r2proposed = 1.0000e-10
  Set drift_modifier UNR parameter a = 1.0000e+00
 Using QMCCostFunction::QMCCostFunction
 Using Default Cost Function: Cost = <|E-E_ff|^2>
  Set drift_modifier UNR parameter a = 1.0000e+00
  EstimatorManagerBase::add replace LocalEnergy estimator.
<optimization-report>
<vmc stage="main" blocks="40">
  Cannot make clones again. Use existing 32 clones
  Initial partition of walkers 0 1 2 3 4 5 6 7 8 9 10 11 12 13 14 15 16 17 18 19 20 21 22 23 24 25 26 27 28 29 30 31 32 

  Using Particle by Particle moves
  Walker moves without drift
  Total Sample Size   =81920
  Walker distribution on root = 0 1 2 3 4 5 6 7 8 9 10 11 12 13 14 15 16 17 18 19 20 21 22 23 24 25 26 27 28 29 30 31 32 
===== Memory Usage after the buffer registration =====
Allocated heap: 512.00 MB, avail. heap: 15743.97 MB
Allocated stack: 0.03 MB, avail. stack: 15743.97 MB
==================================================
  Anonymous Buffer size per walker : 306792 Bytes.
MEMORY increase 9 MB VMC::resetRun
====================================================
  SimpleFixedNodeBranch::finalize after a VMC block
    QMC counter        = 1
    time step          = 0.5
    reference energy   = -76.2729
    reference variance = 5.99325
====================================================
  Execution time = 5.7399e+00
</vmc>
<opt stage="setup">
  <log>
   Reading configurations from h5FileRoot H2O-Tr6.s001
  QMCCostFunction is created with 32 threads.
  Using Nonlocal PP in Opt: no
   Number of samples loaded to each thread : 10 10 10 10 10 10 10 10 10 10 10 10 10 10 10 10 10 10 10 10 10 10 10 10 10 10 10 10 10 10 10 10 
  VMC Eavg = -7.6302e+01
  VMC Evar = 5.7366e+00
  Total weights = 8.1920e+04
  Execution time = 5.1370e-01
  </log>
</opt>
<opt stage="main" walkers="81920">
  <log>

*****************************************
Building overlap and Hamiltonian matrices
*****************************************

Among totally 60 optimized parameters, largest LM parameter change : 2.3601e-01 at parameter 12

******************************************************************************
Init Cost =  -6.8098e+01    New Cost =  -6.8112e+01  Delta Cost =  -1.4102e-02
******************************************************************************

The new set of parameters is valid. Updating the trial wave function!

*****************************************************************************
Applying the update for shift_i =   1.0000e-02     and shift_s =   2.5000e-01
*****************************************************************************
  Execution time = 6.3259e+00
  </log>
  <optVariables href="H2O-Tr6.s001.opt.xml">
 uu_0  6.466431e-02 1 1  ON 0
 uu_1 -1.749138e-02 1 1  ON 1
 uu_2 -1.179483e-02 1 1  ON 2
 uu_3 -2.058185e-02 1 1  ON 3
 uu_4 -4.864757e-03 1 1  ON 4
 uu_5  1.907545e-03 1 1  ON 5
 uu_6 -1.724548e-03 1 1  ON 6
 uu_7  7.512118e-03 1 1  ON 7
 uu_8 -1.299583e-02 1 1  ON 8
 uu_9  2.976639e-02 1 1  ON 9
uu_10 -3.265587e-02 1 1  ON 10
uu_11 -1.300761e-01 1 1  ON 11
uu_12  2.360124e-01 1 1  ON 12
uu_13  1.214658e-01 1 1  ON 13
uu_14 -9.782282e-02 1 1  ON 14
uu_15 -6.235093e-02 1 1  ON 15
uu_16 -5.627136e-02 1 1  ON 16
uu_17 -1.103861e-02 1 1  ON 17
uu_18 -1.253903e-03 1 1  ON 18
uu_19 -4.057711e-04 1 1  ON 19
 ud_0  5.171064e-03 1 1  ON 20
 ud_1  1.396918e-02 1 1  ON 21
 ud_2 -7.654350e-03 1 1  ON 22
 ud_3 -1.472652e-02 1 1  ON 23
 ud_4 -2.572353e-02 1 1  ON 24
 ud_5 -7.495888e-03 1 1  ON 25
 ud_6 -1.294856e-02 1 1  ON 26
 ud_7  8.585119e-04 1 1  ON 27
 ud_8 -8.744746e-03 1 1  ON 28
 ud_9 -1.359165e-02 1 1  ON 29
ud_10 -4.331254e-02 1 1  ON 30
ud_11 -2.048261e-02 1 1  ON 31
ud_12  7.835447e-04 1 1  ON 32
ud_13 -1.110984e-02 1 1  ON 33
ud_14 -2.326081e-02 1 1  ON 34
ud_15  1.983243e-03 1 1  ON 35
ud_16 -1.306861e-02 1 1  ON 36
ud_17 -2.645150e-02 1 1  ON 37
ud_18 -9.721216e-03 1 1  ON 38
ud_19 -3.079393e-03 1 1  ON 39
 eH_0  2.055544e-03 1 1  ON 40
 eH_1  1.663067e-03 1 1  ON 41
 eH_2 -2.143066e-03 1 1  ON 42
 eH_3 -2.574183e-02 1 1  ON 43
 eH_4  1.364080e-02 1 1  ON 44
 eH_5 -1.562807e-02 1 1  ON 45
 eH_6 -2.367113e-02 1 1  ON 46
 eH_7  6.789207e-03 1 1  ON 47
 eH_8  2.817427e-02 1 1  ON 48
 eH_9  1.310551e-02 1 1  ON 49
 eO_0 -7.856646e-02 1 1  ON 50
 eO_1 -2.225593e-02 1 1  ON 51
 eO_2  4.481746e-02 1 1  ON 52
 eO_3  3.489235e-02 1 1  ON 53
 eO_4  1.437014e-02 1 1  ON 54
 eO_5 -4.180318e-02 1 1  ON 55
 eO_6 -4.225198e-02 1 1  ON 56
 eO_7 -4.871957e-02 1 1  ON 57
 eO_8 -2.391838e-02 1 1  ON 58
 eO_9 -5.887455e-02 1 1  ON 59
  </optVariables>
   Restore the number of walkers to 32, removing 0 walkers.
</opt>
</optimization-report>
  QMC Execution time = 6.363 secs
  Reusing QMCFixedSampleLinearOptimize
 Using QMCCostFunction::QMCCostFunction
 Using Default Cost Function: Cost = <|E-E_ff|^2>

=========================================================
  Start QMCFixedSampleLinearOptimize
  File Root H2O-Tr6.s002 append = no 
=========================================================
  Skip QMCDriver::putQMCInfo 
  Resetting Properties of the walkers 1 x 13

=========================================================
  Start VMC
  File Root H2O-Tr6.s002 append = no 
=========================================================
Using existing walkers 
  Resetting Properties of the walkers 1 x 13

<vmc function="put">
  qmc_counter=1  my_counter=1
  time step      = 5.0000e-01
  blocks         = 40
  steps          = 1
  substeps       = 5
  current        = 0
  target samples = 8.0000e+04
  walkers/mpi    = 32

  stepsbetweensamples = 4
<parameter name="blocks" condition="int">40</parameter>
<parameter name="blocks_between_recompute" condition="int">0</parameter>
<parameter name="check_properties" condition="int">100</parameter>
<parameter name="checkproperties" condition="int">100</parameter>
<parameter name="current" condition="int">0</parameter>
<parameter name="dmcwalkersperthread" condition="real">1.0000e+01</parameter>
<parameter name="maxcpusecs" condition="real">3.6000e+05</parameter>
<parameter name="record_configs" condition="int">0</parameter>
<parameter name="record_walkers" condition="int">4</parameter>
<parameter name="recordconfigs" condition="int">0</parameter>
<parameter name="recordwalkers" condition="int">4</parameter>
<parameter name="rewind" condition="int">0</parameter>
<parameter name="samples" condition="real">8.0000e+04</parameter>
<parameter name="samplesperthread" condition="real">1.0000e+01</parameter>
<parameter name="steps" condition="int">1</parameter>
<parameter name="stepsbetweensamples" condition="int">4</parameter>
<parameter name="store_configs" condition="int">0</parameter>
<parameter name="storeconfigs" condition="int">0</parameter>
<parameter name="sub_steps" condition="int">5</parameter>
<parameter name="substeps" condition="int">5</parameter>
<parameter name="tau" condition="au">5.0000e-01</parameter>
<parameter name="time_step" condition="au">5.0000e-01</parameter>
<parameter name="timestep" condition="au">5.0000e-01</parameter>
<parameter name="use_drift" condition="string">no</parameter>
<parameter name="usedrift" condition="string">no</parameter>
<parameter name="walkers" condition="int">1</parameter>
<parameter name="warmup_steps" condition="int">2</parameter>
<parameter name="warmupsteps" condition="int">2</parameter>
  DumpConfig==false Nothing (configurations, state) will be saved.
  Walker Samples are dumped every 4 steps.
</vmc>
  Set drift_modifier UNR parameter a = 1.0000e+00
  EstimatorManagerBase::add replace LocalEnergy estimator.
  Set drift_modifier UNR parameter a = 1.0000e+00
  EstimatorManagerBase::add replace LocalEnergy estimator.
<optimization-report>
<vmc stage="main" blocks="40">
  Cannot make clones again. Use existing 32 clones
  Initial partition of walkers 0 1 2 3 4 5 6 7 8 9 10 11 12 13 14 15 16 17 18 19 20 21 22 23 24 25 26 27 28 29 30 31 32 
  Using Particle by Particle moves
  Walker moves without drift
  Total Sample Size   =81920
  Walker distribution on root = 0 1 2 3 4 5 6 7 8 9 10 11 12 13 14 15 16 17 18 19 20 21 22 23 24 25 26 27 28 29 30 31 32 
===== Memory Usage after the buffer registration =====
Allocated heap: 512.00 MB, avail. heap: 15743.97 MB
Allocated stack: 0.03 MB, avail. stack: 15743.97 MB
==================================================
====================================================
  SimpleFixedNodeBranch::finalize after a VMC block
    QMC counter        = 2
    time step          = 0.5
    reference energy   = -76.3157
    reference variance = 5.84126
====================================================
  Execution time = 5.7396e+00
</vmc>
<opt stage="setup">
  <log>
   Reading configurations from h5FileRoot H2O-Tr6.s002
  QMCCostFunction is created with 32 threads.
  Using Nonlocal PP in Opt: no
   Number of samples loaded to each thread : 10 10 10 10 10 10 10 10 10 10 10 10 10 10 10 10 10 10 10 10 10 10 10 10 10 10 10 10 10 10 10 10 
  VMC Eavg = -7.6324e+01
  VMC Evar = 6.2360e+00
  Total weights = 8.1920e+04
  Execution time = 5.1382e-01
  </log>
</opt>
<opt stage="main" walkers="81920">
  <log>

*****************************************
Building overlap and Hamiltonian matrices
*****************************************

Among totally 60 optimized parameters, largest LM parameter change : 1.0943e+00 at parameter 11

******************************************************************************
Init Cost =  -6.8068e+01    New Cost =  -6.4318e+01  Delta Cost =   3.7497e+00
******************************************************************************

The new set of parameters is valid. Updating the trial wave function!

*****************************************************************************
Applying the update for shift_i =   1.0000e-02     and shift_s =   6.2500e-02
*****************************************************************************
  Execution time = 6.3279e+00
  </log>
  <optVariables href="H2O-Tr6.s002.opt.xml">
 uu_0  1.330682e-01 1 1  ON 0
 uu_1  1.220073e-01 1 1  ON 1
 uu_2 -8.258033e-02 1 1  ON 2
 uu_3  3.270850e-02 1 1  ON 3
 uu_4  1.607949e-03 1 1  ON 4
 uu_5 -1.142680e-01 1 1  ON 5
 uu_6  1.520686e-02 1 1  ON 6
 uu_7  1.619032e-02 1 1  ON 7
 uu_8 -4.089428e-02 1 1  ON 8
 uu_9 -6.369999e-02 1 1  ON 9
uu_10 -1.421528e-01 1 1  ON 10
uu_11  9.642606e-01 1 1  ON 11
uu_12  9.246270e-01 1 1  ON 12
uu_13 -4.532793e-01 1 1  ON 13
uu_14 -7.411321e-01 1 1  ON 14
uu_15 -3.094490e-01 1 1  ON 15
uu_16 -1.731812e-01 1 1  ON 16
uu_17 -7.684840e-02 1 1  ON 17
uu_18 -1.149206e-02 1 1  ON 18
uu_19 -6.994017e-04 1 1  ON 19
 ud_0  5.281359e-02 1 1  ON 20
 ud_1  8.534742e-02 1 1  ON 21
 ud_2  7.578329e-02 1 1  ON 22
 ud_3  1.188885e-01 1 1  ON 23
 ud_4  1.051802e-01 1 1  ON 24
 ud_5  1.364114e-01 1 1  ON 25
 ud_6  1.605388e-01 1 1  ON 26
 ud_7  4.262695e-02 1 1  ON 27
 ud_8 -9.042737e-03 1 1  ON 28
 ud_9 -7.393630e-02 1 1  ON 29
ud_10  4.430358e-02 1 1  ON 30
ud_11  3.239606e-01 1 1  ON 31
ud_12  4.961511e-01 1 1  ON 32
ud_13  5.576794e-01 1 1  ON 33
ud_14  4.534946e-01 1 1  ON 34
ud_15  3.125494e-01 1 1  ON 35
ud_16 -1.543179e-02 1 1  ON 36
ud_17 -3.650569e-02 1 1  ON 37
ud_18 -3.697501e-02 1 1  ON 38
ud_19 -1.010056e-02 1 1  ON 39
 eH_0 -6.665942e-04 1 1  ON 40
 eH_1 -6.939600e-03 1 1  ON 41
 eH_2 -1.995712e-01 1 1  ON 42
 eH_3 -2.578614e-01 1 1  ON 43
 eH_4 -2.692534e-01 1 1  ON 44
 eH_5 -2.110143e-01 1 1  ON 45
 eH_6 -3.101731e-01 1 1  ON 46
 eH_7 -8.980082e-03 1 1  ON 47
 eH_8  2.922135e-01 1 1  ON 48
 eH_9  4.492517e-02 1 1  ON 49
 eO_0  3.411845e-01 1 1  ON 50
 eO_1  3.738055e-01 1 1  ON 51
 eO_2  1.789751e-01 1 1  ON 52
 eO_3  3.287866e-01 1 1  ON 53
 eO_4  1.617697e-01 1 1  ON 54
 eO_5  9.637112e-02 1 1  ON 55
 eO_6  4.840413e-02 1 1  ON 56
 eO_7 -1.264987e-01 1 1  ON 57
 eO_8 -3.914933e-01 1 1  ON 58
 eO_9 -6.457878e-01 1 1  ON 59
  </optVariables>
   Restore the number of walkers to 32, removing 0 walkers.
</opt>
</optimization-report>
  QMC Execution time = 6.366 secs
  Reusing QMCFixedSampleLinearOptimize
 Using QMCCostFunction::QMCCostFunction
 Using Default Cost Function: Cost = <|E-E_ff|^2>

=========================================================
  Start QMCFixedSampleLinearOptimize
  File Root H2O-Tr6.s003 append = no 
=========================================================
  Skip QMCDriver::putQMCInfo 
  Resetting Properties of the walkers 1 x 13

=========================================================
  Start VMC
  File Root H2O-Tr6.s003 append = no 
=========================================================
Using existing walkers 
  Resetting Properties of the walkers 1 x 13

<vmc function="put">
  qmc_counter=2  my_counter=2
  time step      = 5.0000e-01
  blocks         = 40
  steps          = 1
  substeps       = 5
  current        = 0
  target samples = 8.0000e+04
  walkers/mpi    = 32

  stepsbetweensamples = 4
<parameter name="blocks" condition="int">40</parameter>
<parameter name="blocks_between_recompute" condition="int">0</parameter>
<parameter name="check_properties" condition="int">100</parameter>
<parameter name="checkproperties" condition="int">100</parameter>
<parameter name="current" condition="int">0</parameter>
<parameter name="dmcwalkersperthread" condition="real">1.0000e+01</parameter>
<parameter name="maxcpusecs" condition="real">3.6000e+05</parameter>
<parameter name="record_configs" condition="int">0</parameter>
<parameter name="record_walkers" condition="int">4</parameter>
<parameter name="recordconfigs" condition="int">0</parameter>
<parameter name="recordwalkers" condition="int">4</parameter>
<parameter name="rewind" condition="int">0</parameter>
<parameter name="samples" condition="real">8.0000e+04</parameter>
<parameter name="samplesperthread" condition="real">1.0000e+01</parameter>
<parameter name="steps" condition="int">1</parameter>
<parameter name="stepsbetweensamples" condition="int">4</parameter>
<parameter name="store_configs" condition="int">0</parameter>
<parameter name="storeconfigs" condition="int">0</parameter>
<parameter name="sub_steps" condition="int">5</parameter>
<parameter name="substeps" condition="int">5</parameter>
<parameter name="tau" condition="au">5.0000e-01</parameter>
<parameter name="time_step" condition="au">5.0000e-01</parameter>
<parameter name="timestep" condition="au">5.0000e-01</parameter>
<parameter name="use_drift" condition="string">no</parameter>
<parameter name="usedrift" condition="string">no</parameter>
<parameter name="walkers" condition="int">1</parameter>
<parameter name="warmup_steps" condition="int">2</parameter>
<parameter name="warmupsteps" condition="int">2</parameter>
  DumpConfig==false Nothing (configurations, state) will be saved.
  Walker Samples are dumped every 4 steps.
</vmc>
  Set drift_modifier UNR parameter a = 1.0000e+00
  EstimatorManagerBase::add replace LocalEnergy estimator.
  Set drift_modifier UNR parameter a = 1.0000e+00
  EstimatorManagerBase::add replace LocalEnergy estimator.
<optimization-report>
<vmc stage="main" blocks="40">
  Cannot make clones again. Use existing 32 clones
  Initial partition of walkers 0 1 2 3 4 5 6 7 8 9 10 11 12 13 14 15 16 17 18 19 20 21 22 23 24 25 26 27 28 29 30 31 32 
  Using Particle by Particle moves
  Walker moves without drift
  Total Sample Size   =81920
  Walker distribution on root = 0 1 2 3 4 5 6 7 8 9 10 11 12 13 14 15 16 17 18 19 20 21 22 23 24 25 26 27 28 29 30 31 32 
===== Memory Usage after the buffer registration =====
Allocated heap: 512.00 MB, avail. heap: 15743.97 MB
Allocated stack: 0.03 MB, avail. stack: 15743.97 MB
==================================================
====================================================
  SimpleFixedNodeBranch::finalize after a VMC block
    QMC counter        = 3
    time step          = 0.5
    reference energy   = -74.91
    reference variance = 28.0817
====================================================
  Execution time = 5.7384e+00
</vmc>
<opt stage="setup">
  <log>
   Reading configurations from h5FileRoot H2O-Tr6.s003
  QMCCostFunction is created with 32 threads.
  Using Nonlocal PP in Opt: no
   Number of samples loaded to each thread : 10 10 10 10 10 10 10 10 10 10 10 10 10 10 10 10 10 10 10 10 10 10 10 10 10 10 10 10 10 10 10 10 
  VMC Eavg = -7.4889e+01
  VMC Evar = 2.8935e+01
  Total weights = 8.1920e+04
  Execution time = 5.1465e-01
  </log>
</opt>
<opt stage="main" walkers="81920">
  <log>

*****************************************
Building overlap and Hamiltonian matrices
*****************************************

Among totally 60 optimized parameters, largest LM parameter change : 5.8387e-01 at parameter 11

******************************************************************************
Init Cost =  -6.4506e+01    New Cost =  -6.8030e+01  Delta Cost =  -3.5232e+00
******************************************************************************

The new set of parameters is valid. Updating the trial wave function!

*****************************************************************************
Applying the update for shift_i =   1.0000e-02     and shift_s =   1.5625e-02
*****************************************************************************
  Execution time = 6.3278e+00
  </log>
  <optVariables href="H2O-Tr6.s003.opt.xml">
 uu_0  1.237301e-01 1 1  ON 0
 uu_1  8.146920e-02 1 1  ON 1
 uu_2  6.575560e-02 1 1  ON 2
 uu_3  4.367090e-02 1 1  ON 3
 uu_4  3.795704e-02 1 1  ON 4
 uu_5  5.055241e-02 1 1  ON 5
 uu_6  3.413807e-02 1 1  ON 6
 uu_7  4.425276e-02 1 1  ON 7
 uu_8  4.991740e-02 1 1  ON 8
 uu_9  3.806141e-02 1 1  ON 9
uu_10  8.457080e-02 1 1  ON 10
uu_11  3.803902e-01 1 1  ON 11
uu_12  4.703097e-01 1 1  ON 12
uu_13 -1.440861e-01 1 1  ON 13
uu_14 -6.340253e-01 1 1  ON 14
uu_15 -3.528841e-01 1 1  ON 15
uu_16 -2.488281e-01 1 1  ON 16
uu_17 -9.528779e-02 1 1  ON 17
uu_18 -2.358592e-02 1 1  ON 18
uu_19 -5.911975e-03 1 1  ON 19
 ud_0  1.370981e-01 1 1  ON 20
 ud_1  1.408433e-01 1 1  ON 21
 ud_2  1.159335e-01 1 1  ON 22
 ud_3  1.161770e-01 1 1  ON 23
 ud_4  1.083998e-01 1 1  ON 24
 ud_5  1.032654e-01 1 1  ON 25
 ud_6  9.692360e-02 1 1  ON 26
 ud_7  9.525676e-02 1 1  ON 27
 ud_8  7.299139e-02 1 1  ON 28
 ud_9  4.455048e-02 1 1  ON 29
ud_10  9.298843e-02 1 1  ON 30
ud_11  2.467790e-01 1 1  ON 31
ud_12  3.371156e-01 1 1  ON 32
ud_13  4.528569e-01 1 1  ON 33
ud_14  4.316809e-01 1 1  ON 34
ud_15  2.699598e-01 1 1  ON 35
ud_16 -1.177878e-02 1 1  ON 36
ud_17 -1.753719e-02 1 1  ON 37
ud_18 -3.893278e-02 1 1  ON 38
ud_19 -1.085353e-02 1 1  ON 39
 eH_0 -1.328426e-01 1 1  ON 40
 eH_1 -1.345884e-01 1 1  ON 41
 eH_2 -1.440605e-01 1 1  ON 42
 eH_3 -1.707694e-01 1 1  ON 43
 eH_4 -1.751381e-01 1 1  ON 44
 eH_5 -1.702995e-01 1 1  ON 45
 eH_6 -1.397331e-01 1 1  ON 46
 eH_7 -8.941468e-02 1 1  ON 47
 eH_8 -3.365289e-02 1 1  ON 48
 eH_9  5.040388e-02 1 1  ON 49
 eO_0  8.124884e-02 1 1  ON 50
 eO_1  1.384406e-01 1 1  ON 51
 eO_2  2.042834e-01 1 1  ON 52
 eO_3  2.196670e-01 1 1  ON 53
 eO_4  2.566108e-01 1 1  ON 54
 eO_5  2.184238e-01 1 1  ON 55
 eO_6  1.701595e-01 1 1  ON 56
 eO_7  1.200503e-01 1 1  ON 57
 eO_8 -1.390528e-01 1 1  ON 58
 eO_9 -4.136453e-01 1 1  ON 59
  </optVariables>
   Restore the number of walkers to 32, removing 0 walkers.
</opt>
</optimization-report>
  QMC Execution time = 6.366 secs
  Reusing QMCFixedSampleLinearOptimize
 Using QMCCostFunction::QMCCostFunction
 Using Default Cost Function: Cost = <|E-E_ff|^2>

=========================================================
  Start QMCFixedSampleLinearOptimize
  File Root H2O-Tr6.s004 append = no 
=========================================================
  Skip QMCDriver::putQMCInfo 
  Resetting Properties of the walkers 1 x 13

=========================================================
  Start VMC
  File Root H2O-Tr6.s004 append = no 
=========================================================
Using existing walkers 
  Resetting Properties of the walkers 1 x 13

<vmc function="put">
  qmc_counter=3  my_counter=3
  time step      = 5.0000e-01
  blocks         = 40
  steps          = 1
  substeps       = 5
  current        = 0
  target samples = 8.0000e+04
  walkers/mpi    = 32

  stepsbetweensamples = 4
<parameter name="blocks" condition="int">40</parameter>
<parameter name="blocks_between_recompute" condition="int">0</parameter>
<parameter name="check_properties" condition="int">100</parameter>
<parameter name="checkproperties" condition="int">100</parameter>
<parameter name="current" condition="int">0</parameter>
<parameter name="dmcwalkersperthread" condition="real">1.0000e+01</parameter>
<parameter name="maxcpusecs" condition="real">3.6000e+05</parameter>
<parameter name="record_configs" condition="int">0</parameter>
<parameter name="record_walkers" condition="int">4</parameter>
<parameter name="recordconfigs" condition="int">0</parameter>
<parameter name="recordwalkers" condition="int">4</parameter>
<parameter name="rewind" condition="int">0</parameter>
<parameter name="samples" condition="real">8.0000e+04</parameter>
<parameter name="samplesperthread" condition="real">1.0000e+01</parameter>
<parameter name="steps" condition="int">1</parameter>
<parameter name="stepsbetweensamples" condition="int">4</parameter>
<parameter name="store_configs" condition="int">0</parameter>
<parameter name="storeconfigs" condition="int">0</parameter>
<parameter name="sub_steps" condition="int">5</parameter>
<parameter name="substeps" condition="int">5</parameter>
<parameter name="tau" condition="au">5.0000e-01</parameter>
<parameter name="time_step" condition="au">5.0000e-01</parameter>
<parameter name="timestep" condition="au">5.0000e-01</parameter>
<parameter name="use_drift" condition="string">no</parameter>
<parameter name="usedrift" condition="string">no</parameter>
<parameter name="walkers" condition="int">1</parameter>
<parameter name="warmup_steps" condition="int">2</parameter>
<parameter name="warmupsteps" condition="int">2</parameter>
  DumpConfig==false Nothing (configurations, state) will be saved.
  Walker Samples are dumped every 4 steps.
</vmc>
  Set drift_modifier UNR parameter a = 1.0000e+00
  EstimatorManagerBase::add replace LocalEnergy estimator.
  Set drift_modifier UNR parameter a = 1.0000e+00
  EstimatorManagerBase::add replace LocalEnergy estimator.
<optimization-report>
<vmc stage="main" blocks="40">
  Cannot make clones again. Use existing 32 clones
  Initial partition of walkers 0 1 2 3 4 5 6 7 8 9 10 11 12 13 14 15 16 17 18 19 20 21 22 23 24 25 26 27 28 29 30 31 32 
  Using Particle by Particle moves
  Walker moves without drift
  Total Sample Size   =81920
  Walker distribution on root = 0 1 2 3 4 5 6 7 8 9 10 11 12 13 14 15 16 17 18 19 20 21 22 23 24 25 26 27 28 29 30 31 32 
===== Memory Usage after the buffer registration =====
Allocated heap: 512.00 MB, avail. heap: 15743.97 MB
Allocated stack: 0.03 MB, avail. stack: 15743.97 MB
==================================================
====================================================
  SimpleFixedNodeBranch::finalize after a VMC block
    QMC counter        = 4
    time step          = 0.5
    reference energy   = -76.2698
    reference variance = 7.57814
====================================================
  Execution time = 5.7386e+00
</vmc>
<opt stage="setup">
  <log>
   Reading configurations from h5FileRoot H2O-Tr6.s004
  QMCCostFunction is created with 32 threads.
  Using Nonlocal PP in Opt: no
   Number of samples loaded to each thread : 10 10 10 10 10 10 10 10 10 10 10 10 10 10 10 10 10 10 10 10 10 10 10 10 10 10 10 10 10 10 10 10 
  VMC Eavg = -7.6286e+01
  VMC Evar = 7.6248e+00
  Total weights = 8.1920e+04
  Execution time = 5.1426e-01
  </log>
</opt>
<opt stage="main" walkers="81920">
  <log>

*****************************************
Building overlap and Hamiltonian matrices
*****************************************

Among totally 60 optimized parameters, largest LM parameter change : 3.5095e-01 at parameter 12

******************************************************************************
Init Cost =  -6.7895e+01    New Cost =  -6.8027e+01  Delta Cost =  -1.3234e-01
******************************************************************************

The new set of parameters is valid. Updating the trial wave function!

*****************************************************************************
Applying the update for shift_i =   1.0000e-02     and shift_s =   3.9062e-03
*****************************************************************************
  Execution time = 6.3273e+00
  </log>
  <optVariables href="H2O-Tr6.s004.opt.xml">
 uu_0  1.653561e-01 1 1  ON 0
 uu_1  1.088099e-01 1 1  ON 1
 uu_2  7.772048e-02 1 1  ON 2
 uu_3  6.571758e-02 1 1  ON 3
 uu_4  5.887633e-02 1 1  ON 4
 uu_5  5.562342e-02 1 1  ON 5
 uu_6  5.537154e-02 1 1  ON 6
 uu_7  5.407140e-02 1 1  ON 7
 uu_8  5.756851e-02 1 1  ON 8
 uu_9  5.923183e-02 1 1  ON 9
uu_10  7.508889e-02 1 1  ON 10
uu_11  1.048397e-01 1 1  ON 11
uu_12  1.193570e-01 1 1  ON 12
uu_13 -4.215698e-02 1 1  ON 13
uu_14 -3.983004e-01 1 1  ON 14
uu_15 -2.878209e-01 1 1  ON 15
uu_16 -2.318486e-01 1 1  ON 16
uu_17 -7.706492e-02 1 1  ON 17
uu_18 -1.128544e-02 1 1  ON 18
uu_19 -2.505727e-03 1 1  ON 19
 ud_0  1.417524e-01 1 1  ON 20
 ud_1  1.478338e-01 1 1  ON 21
 ud_2  1.177101e-01 1 1  ON 22
 ud_3  1.192683e-01 1 1  ON 23
 ud_4  1.094681e-01 1 1  ON 24
 ud_5  1.067473e-01 1 1  ON 25
 ud_6  1.058067e-01 1 1  ON 26
 ud_7  1.088991e-01 1 1  ON 27
 ud_8  1.140712e-01 1 1  ON 28
 ud_9  1.180682e-01 1 1  ON 29
ud_10  1.355605e-01 1 1  ON 30
ud_11  1.748389e-01 1 1  ON 31
ud_12  2.349041e-01 1 1  ON 32
ud_13  3.458472e-01 1 1  ON 33
ud_14  3.860220e-01 1 1  ON 34
ud_15  3.054913e-01 1 1  ON 35
ud_16  3.791428e-02 1 1  ON 36
ud_17  1.441028e-02 1 1  ON 37
ud_18 -3.049285e-02 1 1  ON 38
ud_19 -9.233988e-03 1 1  ON 39
 eH_0 -1.214078e-01 1 1  ON 40
 eH_1 -9.990555e-02 1 1  ON 41
 eH_2 -9.023475e-02 1 1  ON 42
 eH_3 -8.718320e-02 1 1  ON 43
 eH_4 -8.653269e-02 1 1  ON 44
 eH_5 -8.012503e-02 1 1  ON 45
 eH_6 -6.942075e-02 1 1  ON 46
 eH_7 -6.392489e-02 1 1  ON 47
 eH_8 -5.571694e-02 1 1  ON 48
 eH_9 -3.054607e-02 1 1  ON 49
 eO_0 -2.219092e-02 1 1  ON 50
 eO_1  3.641550e-02 1 1  ON 51
 eO_2  1.104649e-01 1 1  ON 52
 eO_3  1.400180e-01 1 1  ON 53
 eO_4  1.957720e-01 1 1  ON 54
 eO_5  1.863348e-01 1 1  ON 55
 eO_6  1.670616e-01 1 1  ON 56
 eO_7  1.666275e-01 1 1  ON 57
 eO_8  6.635402e-02 1 1  ON 58
 eO_9 -9.394845e-02 1 1  ON 59
  </optVariables>
   Restore the number of walkers to 32, removing 0 walkers.
</opt>
</optimization-report>
  QMC Execution time = 6.365 secs
Loop execution max-interations = 10
  Reusing QMCFixedSampleLinearOptimize
 Using QMCCostFunction::QMCCostFunction
 Using Default Cost Function: Cost = <|E-E_ff|^2>

=========================================================
  Start QMCFixedSampleLinearOptimize
  File Root H2O-Tr6.s005 append = no 
=========================================================
  Skip QMCDriver::putQMCInfo 
  Resetting Properties of the walkers 1 x 13

=========================================================
  Start VMC
  File Root H2O-Tr6.s005 append = no 
=========================================================
  Using the current 32 walkers.
  Total number of walkers: 8.1920e+03
  Total weight: 8.1920e+03
  Resetting Properties of the walkers 1 x 13

<vmc function="put">
  qmc_counter=0  my_counter=4
  time step      = 5.0000e-01
  blocks         = 80
  steps          = 1
  substeps       = 5
  current        = 0
  target samples = 1.6000e+05
  walkers/mpi    = 32

  stepsbetweensamples = 4
<parameter name="blocks" condition="int">80</parameter>
<parameter name="blocks_between_recompute" condition="int">0</parameter>
<parameter name="check_properties" condition="int">100</parameter>
<parameter name="checkproperties" condition="int">100</parameter>
<parameter name="current" condition="int">0</parameter>
<parameter name="dmcwalkersperthread" condition="real">2.0000e+01</parameter>
<parameter name="maxcpusecs" condition="real">3.6000e+05</parameter>
<parameter name="record_configs" condition="int">0</parameter>
<parameter name="record_walkers" condition="int">4</parameter>
<parameter name="recordconfigs" condition="int">0</parameter>
<parameter name="recordwalkers" condition="int">4</parameter>
<parameter name="rewind" condition="int">0</parameter>
<parameter name="samples" condition="real">1.6000e+05</parameter>
<parameter name="samplesperthread" condition="real">2.0000e+01</parameter>
<parameter name="steps" condition="int">1</parameter>
<parameter name="stepsbetweensamples" condition="int">4</parameter>
<parameter name="store_configs" condition="int">0</parameter>
<parameter name="storeconfigs" condition="int">0</parameter>
<parameter name="sub_steps" condition="int">5</parameter>
<parameter name="substeps" condition="int">5</parameter>
<parameter name="tau" condition="au">5.0000e-01</parameter>
<parameter name="time_step" condition="au">5.0000e-01</parameter>
<parameter name="timestep" condition="au">5.0000e-01</parameter>
<parameter name="use_drift" condition="string">no</parameter>
<parameter name="usedrift" condition="string">no</parameter>
<parameter name="walkers" condition="int">32</parameter>
<parameter name="warmup_steps" condition="int">5</parameter>
<parameter name="warmupsteps" condition="int">5</parameter>
  DumpConfig==false Nothing (configurations, state) will be saved.
  Walker Samples are dumped every 4 steps.
</vmc>
  Set drift_modifier UNR parameter a = 1.0000e+00
  EstimatorManagerBase::add replace LocalEnergy estimator.
  Set drift_modifier UNR parameter a = 1.0000e+00
  EstimatorManagerBase::add replace LocalEnergy estimator.
<optimization-report>
<vmc stage="main" blocks="80">
  Cannot make clones again. Use existing 32 clones
  Initial partition of walkers 0 1 2 3 4 5 6 7 8 9 10 11 12 13 14 15 16 17 18 19 20 21 22 23 24 25 26 27 28 29 30 31 32 
  Using Particle by Particle moves
  Walker moves without drift
  Total Sample Size   =163840
  Walker distribution on root = 0 1 2 3 4 5 6 7 8 9 10 11 12 13 14 15 16 17 18 19 20 21 22 23 24 25 26 27 28 29 30 31 32 
===== Memory Usage after the buffer registration =====
Allocated heap: 512.00 MB, avail. heap: 15743.97 MB
Allocated stack: 0.03 MB, avail. stack: 15743.97 MB
==================================================
====================================================
  SimpleFixedNodeBranch::finalize after a VMC block
    QMC counter        = 5
    time step          = 0.5
    reference energy   = -76.3411
    reference variance = 4.973
====================================================
  Execution time = 1.1459e+01
</vmc>
<opt stage="setup">
  <log>
   Reading configurations from h5FileRoot H2O-Tr6.s005
  QMCCostFunction is created with 32 threads.
  Using Nonlocal PP in Opt: no
   Number of samples loaded to each thread : 20 20 20 20 20 20 20 20 20 20 20 20 20 20 20 20 20 20 20 20 20 20 20 20 20 20 20 20 20 20 20 20 
  VMC Eavg = -7.6364e+01
  VMC Evar = 5.5814e+00
  Total weights = 1.6384e+05
  Execution time = 1.0273e+00
  </log>
</opt>
<opt stage="main" walkers="163840">
  <log>

*****************************************
Building overlap and Hamiltonian matrices
*****************************************

Among totally 60 optimized parameters, largest LM parameter change : 1.9589e-01 at parameter 14

******************************************************************************
Init Cost =  -6.8170e+01    New Cost =  -6.8178e+01  Delta Cost =  -8.1737e-03
******************************************************************************

The new set of parameters is valid. Updating the trial wave function!

*****************************************************************************
Applying the update for shift_i =   1.0000e-02     and shift_s =   3.9062e-03
*****************************************************************************
  Execution time = 1.2592e+01
  </log>
  <optVariables href="H2O-Tr6.s005.opt.xml">
 uu_0  1.612438e-01 1 1  ON 0
 uu_1  1.024616e-01 1 1  ON 1
 uu_2  7.250405e-02 1 1  ON 2
 uu_3  6.038211e-02 1 1  ON 3
 uu_4  5.282435e-02 1 1  ON 4
 uu_5  4.776864e-02 1 1  ON 5
 uu_6  4.587385e-02 1 1  ON 6
 uu_7  4.364709e-02 1 1  ON 7
 uu_8  4.198940e-02 1 1  ON 8
 uu_9  4.157551e-02 1 1  ON 9
uu_10  3.986789e-02 1 1  ON 10
uu_11  3.233291e-02 1 1  ON 11
uu_12  1.041246e-02 1 1  ON 12
uu_13 -1.129917e-02 1 1  ON 13
uu_14 -2.024085e-01 1 1  ON 14
uu_15 -2.275386e-01 1 1  ON 15
uu_16 -2.108264e-01 1 1  ON 16
uu_17 -7.616629e-02 1 1  ON 17
uu_18 -1.345115e-02 1 1  ON 18
uu_19 -3.949356e-03 1 1  ON 19
 ud_0  1.685543e-01 1 1  ON 20
 ud_1  1.733847e-01 1 1  ON 21
 ud_2  1.423583e-01 1 1  ON 22
 ud_3  1.451882e-01 1 1  ON 23
 ud_4  1.343446e-01 1 1  ON 24
 ud_5  1.301492e-01 1 1  ON 25
 ud_6  1.284405e-01 1 1  ON 26
 ud_7  1.286066e-01 1 1  ON 27
 ud_8  1.286076e-01 1 1  ON 28
 ud_9  1.304360e-01 1 1  ON 29
ud_10  1.305407e-01 1 1  ON 30
ud_11  1.408893e-01 1 1  ON 31
ud_12  1.579208e-01 1 1  ON 32
ud_13  2.279862e-01 1 1  ON 33
ud_14  3.161529e-01 1 1  ON 34
ud_15  3.057453e-01 1 1  ON 35
ud_16  8.390387e-02 1 1  ON 36
ud_17  4.018902e-02 1 1  ON 37
ud_18 -2.425151e-02 1 1  ON 38
ud_19 -4.004206e-03 1 1  ON 39
 eH_0 -7.395329e-02 1 1  ON 40
 eH_1 -5.824453e-02 1 1  ON 41
 eH_2 -5.217493e-02 1 1  ON 42
 eH_3 -5.281803e-02 1 1  ON 43
 eH_4 -5.019573e-02 1 1  ON 44
 eH_5 -4.664614e-02 1 1  ON 45
 eH_6 -4.122586e-02 1 1  ON 46
 eH_7 -3.811621e-02 1 1  ON 47
 eH_8 -3.672610e-02 1 1  ON 48
 eH_9 -3.010954e-02 1 1  ON 49
 eO_0 -7.312093e-02 1 1  ON 50
 eO_1 -9.814648e-03 1 1  ON 51
 eO_2  7.402147e-02 1 1  ON 52
 eO_3  1.097069e-01 1 1  ON 53
 eO_4  1.726555e-01 1 1  ON 54
 eO_5  1.760508e-01 1 1  ON 55
 eO_6  1.810114e-01 1 1  ON 56
 eO_7  1.849390e-01 1 1  ON 57
 eO_8  1.451162e-01 1 1  ON 58
 eO_9  6.206827e-02 1 1  ON 59
  </optVariables>
   Restore the number of walkers to 32, removing 0 walkers.
</opt>
</optimization-report>
  QMC Execution time = 12.63 secs
  Reusing QMCFixedSampleLinearOptimize
 Using QMCCostFunction::QMCCostFunction
 Using Default Cost Function: Cost = <|E-E_ff|^2>

=========================================================
  Start QMCFixedSampleLinearOptimize
  File Root H2O-Tr6.s006 append = no 
=========================================================
  Skip QMCDriver::putQMCInfo 
  Resetting Properties of the walkers 1 x 13

=========================================================
  Start VMC
  File Root H2O-Tr6.s006 append = no 
=========================================================
Using existing walkers 
  Resetting Properties of the walkers 1 x 13

<vmc function="put">
  qmc_counter=1  my_counter=5
  time step      = 5.0000e-01
  blocks         = 80
  steps          = 1
  substeps       = 5
  current        = 0
  target samples = 1.6000e+05
  walkers/mpi    = 32

  stepsbetweensamples = 4
<parameter name="blocks" condition="int">80</parameter>
<parameter name="blocks_between_recompute" condition="int">0</parameter>
<parameter name="check_properties" condition="int">100</parameter>
<parameter name="checkproperties" condition="int">100</parameter>
<parameter name="current" condition="int">0</parameter>
<parameter name="dmcwalkersperthread" condition="real">2.0000e+01</parameter>
<parameter name="maxcpusecs" condition="real">3.6000e+05</parameter>
<parameter name="record_configs" condition="int">0</parameter>
<parameter name="record_walkers" condition="int">4</parameter>
<parameter name="recordconfigs" condition="int">0</parameter>
<parameter name="recordwalkers" condition="int">4</parameter>
<parameter name="rewind" condition="int">0</parameter>
<parameter name="samples" condition="real">1.6000e+05</parameter>
<parameter name="samplesperthread" condition="real">2.0000e+01</parameter>
<parameter name="steps" condition="int">1</parameter>
<parameter name="stepsbetweensamples" condition="int">4</parameter>
<parameter name="store_configs" condition="int">0</parameter>
<parameter name="storeconfigs" condition="int">0</parameter>
<parameter name="sub_steps" condition="int">5</parameter>
<parameter name="substeps" condition="int">5</parameter>
<parameter name="tau" condition="au">5.0000e-01</parameter>
<parameter name="time_step" condition="au">5.0000e-01</parameter>
<parameter name="timestep" condition="au">5.0000e-01</parameter>
<parameter name="use_drift" condition="string">no</parameter>
<parameter name="usedrift" condition="string">no</parameter>
<parameter name="walkers" condition="int">1</parameter>
<parameter name="warmup_steps" condition="int">5</parameter>
<parameter name="warmupsteps" condition="int">5</parameter>
  DumpConfig==false Nothing (configurations, state) will be saved.
  Walker Samples are dumped every 4 steps.
</vmc>
  Set drift_modifier UNR parameter a = 1.0000e+00
  EstimatorManagerBase::add replace LocalEnergy estimator.
  Set drift_modifier UNR parameter a = 1.0000e+00
  EstimatorManagerBase::add replace LocalEnergy estimator.
<optimization-report>
<vmc stage="main" blocks="80">
  Cannot make clones again. Use existing 32 clones
  Initial partition of walkers 0 1 2 3 4 5 6 7 8 9 10 11 12 13 14 15 16 17 18 19 20 21 22 23 24 25 26 27 28 29 30 31 32 
  Using Particle by Particle moves
  Walker moves without drift
  Total Sample Size   =163840
  Walker distribution on root = 0 1 2 3 4 5 6 7 8 9 10 11 12 13 14 15 16 17 18 19 20 21 22 23 24 25 26 27 28 29 30 31 32 
===== Memory Usage after the buffer registration =====
Allocated heap: 512.00 MB, avail. heap: 15743.97 MB
Allocated stack: 0.03 MB, avail. stack: 15743.97 MB
==================================================
====================================================
  SimpleFixedNodeBranch::finalize after a VMC block
    QMC counter        = 6
    time step          = 0.5
    reference energy   = -76.4164
    reference variance = 5.12354
====================================================
  Execution time = 1.1469e+01
</vmc>
<opt stage="setup">
  <log>
   Reading configurations from h5FileRoot H2O-Tr6.s006
  QMCCostFunction is created with 32 threads.
  Using Nonlocal PP in Opt: no
   Number of samples loaded to each thread : 20 20 20 20 20 20 20 20 20 20 20 20 20 20 20 20 20 20 20 20 20 20 20 20 20 20 20 20 20 20 20 20 
  VMC Eavg = -7.6383e+01
  VMC Evar = 5.5267e+00
  Total weights = 1.6384e+05
  Execution time = 1.0271e+00
  </log>
</opt>
<opt stage="main" walkers="163840">
  <log>

*****************************************
Building overlap and Hamiltonian matrices
*****************************************

Among totally 60 optimized parameters, largest LM parameter change : 1.0081e-01 at parameter 34

******************************************************************************
Init Cost =  -6.8192e+01    New Cost =  -6.8194e+01  Delta Cost =  -1.7822e-03
******************************************************************************

The new set of parameters is valid. Updating the trial wave function!

*****************************************************************************
Applying the update for shift_i =   1.0000e-02     and shift_s =   3.9062e-03
*****************************************************************************
  Execution time = 1.2603e+01
  </log>
  <optVariables href="H2O-Tr6.s006.opt.xml">
 uu_0  1.605631e-01 1 1  ON 0
 uu_1  1.005004e-01 1 1  ON 1
 uu_2  6.803317e-02 1 1  ON 2
 uu_3  5.243781e-02 1 1  ON 3
 uu_4  4.306510e-02 1 1  ON 4
 uu_5  3.685401e-02 1 1  ON 5
 uu_6  3.320096e-02 1 1  ON 6
 uu_7  2.943564e-02 1 1  ON 7
 uu_8  2.653554e-02 1 1  ON 8
 uu_9  2.280524e-02 1 1  ON 9
uu_10  1.484985e-02 1 1  ON 10
uu_11  8.941470e-03 1 1  ON 11
uu_12 -8.279902e-03 1 1  ON 12
uu_13 -1.689046e-02 1 1  ON 13
uu_14 -1.088904e-01 1 1  ON 14
uu_15 -1.789690e-01 1 1  ON 15
uu_16 -1.919359e-01 1 1  ON 16
uu_17 -6.919167e-02 1 1  ON 17
uu_18 -1.452169e-02 1 1  ON 18
uu_19 -7.257193e-03 1 1  ON 19
 ud_0  1.893202e-01 1 1  ON 20
 ud_1  1.944994e-01 1 1  ON 21
 ud_2  1.624777e-01 1 1  ON 22
 ud_3  1.630800e-01 1 1  ON 23
 ud_4  1.511158e-01 1 1  ON 24
 ud_5  1.451205e-01 1 1  ON 25
 ud_6  1.421684e-01 1 1  ON 26
 ud_7  1.427634e-01 1 1  ON 27
 ud_8  1.436728e-01 1 1  ON 28
 ud_9  1.472266e-01 1 1  ON 29
ud_10  1.477810e-01 1 1  ON 30
ud_11  1.471871e-01 1 1  ON 31
ud_12  1.605487e-01 1 1  ON 32
ud_13  1.665942e-01 1 1  ON 33
ud_14  2.153405e-01 1 1  ON 34
ud_15  2.469559e-01 1 1  ON 35
ud_16  9.506984e-02 1 1  ON 36
ud_17  5.202402e-02 1 1  ON 37
ud_18 -2.304521e-02 1 1  ON 38
ud_19 -9.451314e-03 1 1  ON 39
 eH_0 -7.085865e-02 1 1  ON 40
 eH_1 -5.897430e-02 1 1  ON 41
 eH_2 -5.078507e-02 1 1  ON 42
 eH_3 -4.764064e-02 1 1  ON 43
 eH_4 -4.294312e-02 1 1  ON 44
 eH_5 -3.775733e-02 1 1  ON 45
 eH_6 -3.218240e-02 1 1  ON 46
 eH_7 -2.355018e-02 1 1  ON 47
 eH_8 -1.926285e-02 1 1  ON 48
 eH_9 -1.131206e-02 1 1  ON 49
 eO_0 -1.129325e-01 1 1  ON 50
 eO_1 -4.733574e-02 1 1  ON 51
 eO_2  4.495113e-02 1 1  ON 52
 eO_3  9.194168e-02 1 1  ON 53
 eO_4  1.628766e-01 1 1  ON 54
 eO_5  1.746991e-01 1 1  ON 55
 eO_6  1.883704e-01 1 1  ON 56
 eO_7  2.065607e-01 1 1  ON 57
 eO_8  1.856630e-01 1 1  ON 58
 eO_9  1.302548e-01 1 1  ON 59
  </optVariables>
   Restore the number of walkers to 32, removing 0 walkers.
</opt>
</optimization-report>
  QMC Execution time = 12.64 secs
  Reusing QMCFixedSampleLinearOptimize
 Using QMCCostFunction::QMCCostFunction
 Using Default Cost Function: Cost = <|E-E_ff|^2>

=========================================================
  Start QMCFixedSampleLinearOptimize
  File Root H2O-Tr6.s007 append = no 
=========================================================
  Skip QMCDriver::putQMCInfo 
  Resetting Properties of the walkers 1 x 13

=========================================================
  Start VMC
  File Root H2O-Tr6.s007 append = no 
=========================================================
Using existing walkers 
  Resetting Properties of the walkers 1 x 13

<vmc function="put">
  qmc_counter=2  my_counter=6
  time step      = 5.0000e-01
  blocks         = 80
  steps          = 1
  substeps       = 5
  current        = 0
  target samples = 1.6000e+05
  walkers/mpi    = 32

  stepsbetweensamples = 4
<parameter name="blocks" condition="int">80</parameter>
<parameter name="blocks_between_recompute" condition="int">0</parameter>
<parameter name="check_properties" condition="int">100</parameter>
<parameter name="checkproperties" condition="int">100</parameter>
<parameter name="current" condition="int">0</parameter>
<parameter name="dmcwalkersperthread" condition="real">2.0000e+01</parameter>
<parameter name="maxcpusecs" condition="real">3.6000e+05</parameter>
<parameter name="record_configs" condition="int">0</parameter>
<parameter name="record_walkers" condition="int">4</parameter>
<parameter name="recordconfigs" condition="int">0</parameter>
<parameter name="recordwalkers" condition="int">4</parameter>
<parameter name="rewind" condition="int">0</parameter>
<parameter name="samples" condition="real">1.6000e+05</parameter>
<parameter name="samplesperthread" condition="real">2.0000e+01</parameter>
<parameter name="steps" condition="int">1</parameter>
<parameter name="stepsbetweensamples" condition="int">4</parameter>
<parameter name="store_configs" condition="int">0</parameter>
<parameter name="storeconfigs" condition="int">0</parameter>
<parameter name="sub_steps" condition="int">5</parameter>
<parameter name="substeps" condition="int">5</parameter>
<parameter name="tau" condition="au">5.0000e-01</parameter>
<parameter name="time_step" condition="au">5.0000e-01</parameter>
<parameter name="timestep" condition="au">5.0000e-01</parameter>
<parameter name="use_drift" condition="string">no</parameter>
<parameter name="usedrift" condition="string">no</parameter>
<parameter name="walkers" condition="int">1</parameter>
<parameter name="warmup_steps" condition="int">5</parameter>
<parameter name="warmupsteps" condition="int">5</parameter>
  DumpConfig==false Nothing (configurations, state) will be saved.
  Walker Samples are dumped every 4 steps.
</vmc>
  Set drift_modifier UNR parameter a = 1.0000e+00
  EstimatorManagerBase::add replace LocalEnergy estimator.
  Set drift_modifier UNR parameter a = 1.0000e+00
  EstimatorManagerBase::add replace LocalEnergy estimator.
<optimization-report>
<vmc stage="main" blocks="80">
  Cannot make clones again. Use existing 32 clones
  Initial partition of walkers 0 1 2 3 4 5 6 7 8 9 10 11 12 13 14 15 16 17 18 19 20 21 22 23 24 25 26 27 28 29 30 31 32 
  Using Particle by Particle moves
  Walker moves without drift
  Total Sample Size   =163840
  Walker distribution on root = 0 1 2 3 4 5 6 7 8 9 10 11 12 13 14 15 16 17 18 19 20 21 22 23 24 25 26 27 28 29 30 31 32 
===== Memory Usage after the buffer registration =====
Allocated heap: 512.00 MB, avail. heap: 15743.97 MB
Allocated stack: 0.03 MB, avail. stack: 15743.97 MB
==================================================
====================================================
  SimpleFixedNodeBranch::finalize after a VMC block
    QMC counter        = 7
    time step          = 0.5
    reference energy   = -76.3994
    reference variance = 5.67068
====================================================
  Execution time = 1.1474e+01
</vmc>
<opt stage="setup">
  <log>
   Reading configurations from h5FileRoot H2O-Tr6.s007
  QMCCostFunction is created with 32 threads.
  Using Nonlocal PP in Opt: no
   Number of samples loaded to each thread : 20 20 20 20 20 20 20 20 20 20 20 20 20 20 20 20 20 20 20 20 20 20 20 20 20 20 20 20 20 20 20 20 
  VMC Eavg = -7.6390e+01
  VMC Evar = 5.8610e+00
  Total weights = 1.6384e+05
  Execution time = 1.0270e+00
  </log>
</opt>
<opt stage="main" walkers="163840">
  <log>

*****************************************
Building overlap and Hamiltonian matrices
*****************************************

Among totally 60 optimized parameters, largest LM parameter change : 6.4939e-02 at parameter 15

******************************************************************************
Init Cost =  -6.8165e+01    New Cost =  -6.8163e+01  Delta Cost =   1.6120e-03
******************************************************************************

The new set of parameters is valid. Updating the trial wave function!

*****************************************************************************
Applying the update for shift_i =   1.0000e-02     and shift_s =   3.9062e-03
*****************************************************************************
  Execution time = 1.2607e+01
  </log>
  <optVariables href="H2O-Tr6.s007.opt.xml">
 uu_0  1.413171e-01 1 1  ON 0
 uu_1  8.217015e-02 1 1  ON 1
 uu_2  5.113610e-02 1 1  ON 2
 uu_3  3.667985e-02 1 1  ON 3
 uu_4  2.659075e-02 1 1  ON 4
 uu_5  2.101238e-02 1 1  ON 5
 uu_6  1.615931e-02 1 1  ON 6
 uu_7  1.025567e-02 1 1  ON 7
 uu_8  6.022081e-03 1 1  ON 8
 uu_9  3.651240e-03 1 1  ON 9
uu_10  1.580612e-03 1 1  ON 10
uu_11 -3.267201e-03 1 1  ON 11
uu_12 -2.069949e-03 1 1  ON 12
uu_13 -6.536497e-03 1 1  ON 13
uu_14 -5.374824e-02 1 1  ON 14
uu_15 -1.140297e-01 1 1  ON 15
uu_16 -1.506696e-01 1 1  ON 16
uu_17 -5.332442e-02 1 1  ON 17
uu_18 -1.031468e-02 1 1  ON 18
uu_19 -5.588669e-03 1 1  ON 19
 ud_0  1.905545e-01 1 1  ON 20
 ud_1  1.947003e-01 1 1  ON 21
 ud_2  1.628603e-01 1 1  ON 22
 ud_3  1.643796e-01 1 1  ON 23
 ud_4  1.520720e-01 1 1  ON 24
 ud_5  1.457642e-01 1 1  ON 25
 ud_6  1.419415e-01 1 1  ON 26
 ud_7  1.413289e-01 1 1  ON 27
 ud_8  1.391264e-01 1 1  ON 28
 ud_9  1.397233e-01 1 1  ON 29
ud_10  1.379578e-01 1 1  ON 30
ud_11  1.323518e-01 1 1  ON 31
ud_12  1.413016e-01 1 1  ON 32
ud_13  1.522356e-01 1 1  ON 33
ud_14  2.078574e-01 1 1  ON 34
ud_15  2.493186e-01 1 1  ON 35
ud_16  1.159475e-01 1 1  ON 36
ud_17  7.766530e-02 1 1  ON 37
ud_18 -6.415515e-03 1 1  ON 38
ud_19 -3.673391e-03 1 1  ON 39
 eH_0 -6.866798e-02 1 1  ON 40
 eH_1 -5.806443e-02 1 1  ON 41
 eH_2 -5.168564e-02 1 1  ON 42
 eH_3 -4.939421e-02 1 1  ON 43
 eH_4 -4.550576e-02 1 1  ON 44
 eH_5 -4.239037e-02 1 1  ON 45
 eH_6 -3.784090e-02 1 1  ON 46
 eH_7 -3.013474e-02 1 1  ON 47
 eH_8 -2.204943e-02 1 1  ON 48
 eH_9 -1.232182e-02 1 1  ON 49
 eO_0 -1.361492e-01 1 1  ON 50
 eO_1 -6.814044e-02 1 1  ON 51
 eO_2  2.303475e-02 1 1  ON 52
 eO_3  7.301978e-02 1 1  ON 53
 eO_4  1.472042e-01 1 1  ON 54
 eO_5  1.653234e-01 1 1  ON 55
 eO_6  1.857261e-01 1 1  ON 56
 eO_7  2.145628e-01 1 1  ON 57
 eO_8  2.033061e-01 1 1  ON 58
 eO_9  1.473277e-01 1 1  ON 59
  </optVariables>
   Restore the number of walkers to 32, removing 0 walkers.
</opt>
</optimization-report>
  QMC Execution time = 12.64 secs
  Reusing QMCFixedSampleLinearOptimize
 Using QMCCostFunction::QMCCostFunction
 Using Default Cost Function: Cost = <|E-E_ff|^2>

=========================================================
  Start QMCFixedSampleLinearOptimize
  File Root H2O-Tr6.s008 append = no 
=========================================================
  Skip QMCDriver::putQMCInfo 
  Resetting Properties of the walkers 1 x 13

=========================================================
  Start VMC
  File Root H2O-Tr6.s008 append = no 
=========================================================
Using existing walkers 
  Resetting Properties of the walkers 1 x 13

<vmc function="put">
  qmc_counter=3  my_counter=7
  time step      = 5.0000e-01
  blocks         = 80
  steps          = 1
  substeps       = 5
  current        = 0
  target samples = 1.6000e+05
  walkers/mpi    = 32

  stepsbetweensamples = 4
<parameter name="blocks" condition="int">80</parameter>
<parameter name="blocks_between_recompute" condition="int">0</parameter>
<parameter name="check_properties" condition="int">100</parameter>
<parameter name="checkproperties" condition="int">100</parameter>
<parameter name="current" condition="int">0</parameter>
<parameter name="dmcwalkersperthread" condition="real">2.0000e+01</parameter>
<parameter name="maxcpusecs" condition="real">3.6000e+05</parameter>
<parameter name="record_configs" condition="int">0</parameter>
<parameter name="record_walkers" condition="int">4</parameter>
<parameter name="recordconfigs" condition="int">0</parameter>
<parameter name="recordwalkers" condition="int">4</parameter>
<parameter name="rewind" condition="int">0</parameter>
<parameter name="samples" condition="real">1.6000e+05</parameter>
<parameter name="samplesperthread" condition="real">2.0000e+01</parameter>
<parameter name="steps" condition="int">1</parameter>
<parameter name="stepsbetweensamples" condition="int">4</parameter>
<parameter name="store_configs" condition="int">0</parameter>
<parameter name="storeconfigs" condition="int">0</parameter>
<parameter name="sub_steps" condition="int">5</parameter>
<parameter name="substeps" condition="int">5</parameter>
<parameter name="tau" condition="au">5.0000e-01</parameter>
<parameter name="time_step" condition="au">5.0000e-01</parameter>
<parameter name="timestep" condition="au">5.0000e-01</parameter>
<parameter name="use_drift" condition="string">no</parameter>
<parameter name="usedrift" condition="string">no</parameter>
<parameter name="walkers" condition="int">1</parameter>
<parameter name="warmup_steps" condition="int">5</parameter>
<parameter name="warmupsteps" condition="int">5</parameter>
  DumpConfig==false Nothing (configurations, state) will be saved.
  Walker Samples are dumped every 4 steps.
</vmc>
  Set drift_modifier UNR parameter a = 1.0000e+00
  EstimatorManagerBase::add replace LocalEnergy estimator.
  Set drift_modifier UNR parameter a = 1.0000e+00
  EstimatorManagerBase::add replace LocalEnergy estimator.
<optimization-report>
<vmc stage="main" blocks="80">
  Cannot make clones again. Use existing 32 clones
  Initial partition of walkers 0 1 2 3 4 5 6 7 8 9 10 11 12 13 14 15 16 17 18 19 20 21 22 23 24 25 26 27 28 29 30 31 32 
  Using Particle by Particle moves
  Walker moves without drift
  Total Sample Size   =163840
  Walker distribution on root = 0 1 2 3 4 5 6 7 8 9 10 11 12 13 14 15 16 17 18 19 20 21 22 23 24 25 26 27 28 29 30 31 32 
===== Memory Usage after the buffer registration =====
Allocated heap: 512.00 MB, avail. heap: 15743.97 MB
Allocated stack: 0.03 MB, avail. stack: 15743.97 MB
==================================================
====================================================
  SimpleFixedNodeBranch::finalize after a VMC block
    QMC counter        = 8
    time step          = 0.5
    reference energy   = -76.357
    reference variance = 4.78438
====================================================
  Execution time = 1.1472e+01
</vmc>
<opt stage="setup">
  <log>
   Reading configurations from h5FileRoot H2O-Tr6.s008
  QMCCostFunction is created with 32 threads.
  Using Nonlocal PP in Opt: no
   Number of samples loaded to each thread : 20 20 20 20 20 20 20 20 20 20 20 20 20 20 20 20 20 20 20 20 20 20 20 20 20 20 20 20 20 20 20 20 
  VMC Eavg = -7.6363e+01
  VMC Evar = 5.4067e+00
  Total weights = 1.6384e+05
  Execution time = 1.0273e+00
  </log>
</opt>
<opt stage="main" walkers="163840">
  <log>

*****************************************
Building overlap and Hamiltonian matrices
*****************************************

Among totally 60 optimized parameters, largest LM parameter change : 3.9026e-02 at parameter 15

******************************************************************************
Init Cost =  -6.8186e+01    New Cost =  -6.8190e+01  Delta Cost =  -3.5844e-03
******************************************************************************

The new set of parameters is valid. Updating the trial wave function!

*****************************************************************************
Applying the update for shift_i =   1.0000e-02     and shift_s =   3.9062e-03
*****************************************************************************
  Execution time = 1.2606e+01
  </log>
  <optVariables href="H2O-Tr6.s008.opt.xml">
 uu_0  1.328199e-01 1 1  ON 0
 uu_1  7.144517e-02 1 1  ON 1
 uu_2  3.858587e-02 1 1  ON 2
 uu_3  2.355690e-02 1 1  ON 3
 uu_4  1.240940e-02 1 1  ON 4
 uu_5  6.293946e-03 1 1  ON 5
 uu_6  1.276773e-03 1 1  ON 6
 uu_7 -1.261307e-03 1 1  ON 7
 uu_8 -4.251726e-03 1 1  ON 8
 uu_9 -4.135476e-03 1 1  ON 9
uu_10  1.351910e-04 1 1  ON 10
uu_11 -1.807762e-03 1 1  ON 11
uu_12  4.022612e-03 1 1  ON 12
uu_13 -3.662412e-03 1 1  ON 13
uu_14 -1.555060e-02 1 1  ON 14
uu_15 -7.500343e-02 1 1  ON 15
uu_16 -1.220423e-01 1 1  ON 16
uu_17 -4.970966e-02 1 1  ON 17
uu_18 -1.328987e-02 1 1  ON 18
uu_19 -6.550003e-03 1 1  ON 19
 ud_0  1.963323e-01 1 1  ON 20
 ud_1  2.017019e-01 1 1  ON 21
 ud_2  1.695293e-01 1 1  ON 22
 ud_3  1.694794e-01 1 1  ON 23
 ud_4  1.571472e-01 1 1  ON 24
 ud_5  1.509031e-01 1 1  ON 25
 ud_6  1.468598e-01 1 1  ON 26
 ud_7  1.466815e-01 1 1  ON 27
 ud_8  1.465110e-01 1 1  ON 28
 ud_9  1.409806e-01 1 1  ON 29
ud_10  1.357629e-01 1 1  ON 30
ud_11  1.261448e-01 1 1  ON 31
ud_12  1.194332e-01 1 1  ON 32
ud_13  1.306230e-01 1 1  ON 33
ud_14  1.855396e-01 1 1  ON 34
ud_15  2.445209e-01 1 1  ON 35
ud_16  1.309197e-01 1 1  ON 36
ud_17  8.526459e-02 1 1  ON 37
ud_18 -3.951658e-03 1 1  ON 38
ud_19 -3.476553e-03 1 1  ON 39
 eH_0 -7.093674e-02 1 1  ON 40
 eH_1 -5.464587e-02 1 1  ON 41
 eH_2 -4.691631e-02 1 1  ON 42
 eH_3 -4.626916e-02 1 1  ON 43
 eH_4 -4.032046e-02 1 1  ON 44
 eH_5 -3.635764e-02 1 1  ON 45
 eH_6 -3.291272e-02 1 1  ON 46
 eH_7 -3.136342e-02 1 1  ON 47
 eH_8 -3.106937e-02 1 1  ON 48
 eH_9 -2.647001e-02 1 1  ON 49
 eO_0 -1.435231e-01 1 1  ON 50
 eO_1 -7.863706e-02 1 1  ON 51
 eO_2  1.694136e-02 1 1  ON 52
 eO_3  6.780181e-02 1 1  ON 53
 eO_4  1.446885e-01 1 1  ON 54
 eO_5  1.617406e-01 1 1  ON 55
 eO_6  1.813407e-01 1 1  ON 56
 eO_7  2.089965e-01 1 1  ON 57
 eO_8  2.002844e-01 1 1  ON 58
 eO_9  1.423101e-01 1 1  ON 59
  </optVariables>
   Restore the number of walkers to 32, removing 0 walkers.
</opt>
</optimization-report>
  QMC Execution time = 12.64 secs
  Reusing QMCFixedSampleLinearOptimize
 Using QMCCostFunction::QMCCostFunction
 Using Default Cost Function: Cost = <|E-E_ff|^2>

=========================================================
  Start QMCFixedSampleLinearOptimize
  File Root H2O-Tr6.s009 append = no 
=========================================================
  Skip QMCDriver::putQMCInfo 
  Resetting Properties of the walkers 1 x 13

=========================================================
  Start VMC
  File Root H2O-Tr6.s009 append = no 
=========================================================
Using existing walkers 
  Resetting Properties of the walkers 1 x 13

<vmc function="put">
  qmc_counter=4  my_counter=8
  time step      = 5.0000e-01
  blocks         = 80
  steps          = 1
  substeps       = 5
  current        = 0
  target samples = 1.6000e+05
  walkers/mpi    = 32

  stepsbetweensamples = 4
<parameter name="blocks" condition="int">80</parameter>
<parameter name="blocks_between_recompute" condition="int">0</parameter>
<parameter name="check_properties" condition="int">100</parameter>
<parameter name="checkproperties" condition="int">100</parameter>
<parameter name="current" condition="int">0</parameter>
<parameter name="dmcwalkersperthread" condition="real">2.0000e+01</parameter>
<parameter name="maxcpusecs" condition="real">3.6000e+05</parameter>
<parameter name="record_configs" condition="int">0</parameter>
<parameter name="record_walkers" condition="int">4</parameter>
<parameter name="recordconfigs" condition="int">0</parameter>
<parameter name="recordwalkers" condition="int">4</parameter>
<parameter name="rewind" condition="int">0</parameter>
<parameter name="samples" condition="real">1.6000e+05</parameter>
<parameter name="samplesperthread" condition="real">2.0000e+01</parameter>
<parameter name="steps" condition="int">1</parameter>
<parameter name="stepsbetweensamples" condition="int">4</parameter>
<parameter name="store_configs" condition="int">0</parameter>
<parameter name="storeconfigs" condition="int">0</parameter>
<parameter name="sub_steps" condition="int">5</parameter>
<parameter name="substeps" condition="int">5</parameter>
<parameter name="tau" condition="au">5.0000e-01</parameter>
<parameter name="time_step" condition="au">5.0000e-01</parameter>
<parameter name="timestep" condition="au">5.0000e-01</parameter>
<parameter name="use_drift" condition="string">no</parameter>
<parameter name="usedrift" condition="string">no</parameter>
<parameter name="walkers" condition="int">1</parameter>
<parameter name="warmup_steps" condition="int">5</parameter>
<parameter name="warmupsteps" condition="int">5</parameter>
  DumpConfig==false Nothing (configurations, state) will be saved.
  Walker Samples are dumped every 4 steps.
</vmc>
  Set drift_modifier UNR parameter a = 1.0000e+00
  EstimatorManagerBase::add replace LocalEnergy estimator.
  Set drift_modifier UNR parameter a = 1.0000e+00
  EstimatorManagerBase::add replace LocalEnergy estimator.
<optimization-report>
<vmc stage="main" blocks="80">
  Cannot make clones again. Use existing 32 clones
  Initial partition of walkers 0 1 2 3 4 5 6 7 8 9 10 11 12 13 14 15 16 17 18 19 20 21 22 23 24 25 26 27 28 29 30 31 32 
  Using Particle by Particle moves
  Walker moves without drift
  Total Sample Size   =163840
  Walker distribution on root = 0 1 2 3 4 5 6 7 8 9 10 11 12 13 14 15 16 17 18 19 20 21 22 23 24 25 26 27 28 29 30 31 32 
===== Memory Usage after the buffer registration =====
Allocated heap: 512.00 MB, avail. heap: 15743.97 MB
Allocated stack: 0.03 MB, avail. stack: 15743.97 MB
==================================================
====================================================
  SimpleFixedNodeBranch::finalize after a VMC block
    QMC counter        = 9
    time step          = 0.5
    reference energy   = -76.3941
    reference variance = 4.97756
====================================================
  Execution time = 1.1469e+01
</vmc>
<opt stage="setup">
  <log>
   Reading configurations from h5FileRoot H2O-Tr6.s009
  QMCCostFunction is created with 32 threads.
  Using Nonlocal PP in Opt: no
   Number of samples loaded to each thread : 20 20 20 20 20 20 20 20 20 20 20 20 20 20 20 20 20 20 20 20 20 20 20 20 20 20 20 20 20 20 20 20 
  VMC Eavg = -7.6390e+01
  VMC Evar = 5.5203e+00
  Total weights = 1.6384e+05
  Execution time = 1.0275e+00
  </log>
</opt>
<opt stage="main" walkers="163840">
  <log>

*****************************************
Building overlap and Hamiltonian matrices
*****************************************

Among totally 60 optimized parameters, largest LM parameter change : 4.3291e-02 at parameter 34

******************************************************************************
Init Cost =  -6.8199e+01    New Cost =  -6.8199e+01  Delta Cost =  -1.4913e-04
******************************************************************************

The new set of parameters is valid. Updating the trial wave function!

*****************************************************************************
Applying the update for shift_i =   1.0000e-02     and shift_s =   3.9062e-03
*****************************************************************************
  Execution time = 1.2602e+01
  </log>
  <optVariables href="H2O-Tr6.s009.opt.xml">
 uu_0  1.352531e-01 1 1  ON 0
 uu_1  7.406399e-02 1 1  ON 1
 uu_2  4.138611e-02 1 1  ON 2
 uu_3  2.697430e-02 1 1  ON 3
 uu_4  1.664425e-02 1 1  ON 4
 uu_5  8.620833e-03 1 1  ON 5
 uu_6  2.548546e-03 1 1  ON 6
 uu_7 -2.667928e-03 1 1  ON 7
 uu_8 -6.669563e-03 1 1  ON 8
 uu_9 -9.891836e-03 1 1  ON 9
uu_10 -7.070642e-03 1 1  ON 10
uu_11 -1.061963e-02 1 1  ON 11
uu_12 -9.227559e-03 1 1  ON 12
[...]
<parameter name="storeconfigs" condition="int">0</parameter>
<parameter name="sub_steps" condition="int">5</parameter>
<parameter name="substeps" condition="int">5</parameter>
<parameter name="tau" condition="au">5.0000e-01</parameter>
<parameter name="time_step" condition="au">5.0000e-01</parameter>
<parameter name="timestep" condition="au">5.0000e-01</parameter>
<parameter name="use_drift" condition="string">no</parameter>
<parameter name="usedrift" condition="string">no</parameter>
<parameter name="walkers" condition="int">1</parameter>
<parameter name="warmup_steps" condition="int">5</parameter>
<parameter name="warmupsteps" condition="int">5</parameter>
  DumpConfig==false Nothing (configurations, state) will be saved.
  Walker Samples are dumped every 4 steps.
</vmc>
  Set drift_modifier UNR parameter a = 1.0000e+00
  EstimatorManagerBase::add replace LocalEnergy estimator.
  Set drift_modifier UNR parameter a = 1.0000e+00
  EstimatorManagerBase::add replace LocalEnergy estimator.
<optimization-report>
<vmc stage="main" blocks="80">
  Cannot make clones again. Use existing 32 clones
  Initial partition of walkers 0 1 2 3 4 5 6 7 8 9 10 11 12 13 14 15 16 17 18 19 20 21 22 23 24 25 26 27 28 29 30 31 32 
  Using Particle by Particle moves
  Walker moves without drift
  Total Sample Size   =163840
  Walker distribution on root = 0 1 2 3 4 5 6 7 8 9 10 11 12 13 14 15 16 17 18 19 20 21 22 23 24 25 26 27 28 29 30 31 32 
===== Memory Usage after the buffer registration =====
Allocated heap: 512.00 MB, avail. heap: 15743.97 MB
Allocated stack: 0.03 MB, avail. stack: 15743.97 MB
==================================================
====================================================
  SimpleFixedNodeBranch::finalize after a VMC block
    QMC counter        = 12
    time step          = 0.5
    reference energy   = -76.3988
    reference variance = 5.26136
====================================================
  Execution time = 1.1463e+01
</vmc>
<opt stage="setup">
  <log>
   Reading configurations from h5FileRoot H2O-Tr6.s012
  QMCCostFunction is created with 32 threads.
  Using Nonlocal PP in Opt: no
   Number of samples loaded to each thread : 20 20 20 20 20 20 20 20 20 20 20 20 20 20 20 20 20 20 20 20 20 20 20 20 20 20 20 20 20 20 20 20 
  VMC Eavg = -7.6404e+01
  VMC Evar = 5.8950e+00
  Total weights = 1.6384e+05
  Execution time = 1.0258e+00
  </log>
</opt>
<opt stage="main" walkers="163840">
  <log>

*****************************************
Building overlap and Hamiltonian matrices
*****************************************

Among totally 60 optimized parameters, largest LM parameter change : 2.8599e-02 at parameter 35

******************************************************************************
Init Cost =  -6.8174e+01    New Cost =  -6.8177e+01  Delta Cost =  -2.3417e-03
******************************************************************************

The new set of parameters is valid. Updating the trial wave function!

*****************************************************************************
Applying the update for shift_i =   1.0000e-02     and shift_s =   3.9062e-03
*****************************************************************************
  Execution time = 1.2595e+01
  </log>
  <optVariables href="H2O-Tr6.s012.opt.xml">
 uu_0  1.187839e-01 1 1  ON 0
 uu_1  5.971682e-02 1 1  ON 1
 uu_2  2.775761e-02 1 1  ON 2
 uu_3  1.242399e-02 1 1  ON 3
 uu_4  1.261638e-03 1 1  ON 4
 uu_5 -4.572229e-03 1 1  ON 5
 uu_6 -8.896504e-03 1 1  ON 6
 uu_7 -1.112560e-02 1 1  ON 7
 uu_8 -1.474478e-02 1 1  ON 8
 uu_9 -1.749692e-02 1 1  ON 9
uu_10 -1.910830e-02 1 1  ON 10
uu_11 -2.631372e-02 1 1  ON 11
uu_12 -2.317975e-02 1 1  ON 12
uu_13 -1.181304e-02 1 1  ON 13
uu_14 -9.693420e-03 1 1  ON 14
uu_15 -2.066690e-02 1 1  ON 15
uu_16 -5.869601e-02 1 1  ON 16
uu_17 -1.646171e-02 1 1  ON 17
uu_18 -1.980447e-03 1 1  ON 18
uu_19  2.665749e-03 1 1  ON 19
 ud_0  2.038383e-01 1 1  ON 20
 ud_1  2.091423e-01 1 1  ON 21
 ud_2  1.773801e-01 1 1  ON 22
 ud_3  1.784464e-01 1 1  ON 23
 ud_4  1.656780e-01 1 1  ON 24
 ud_5  1.598053e-01 1 1  ON 25
 ud_6  1.562416e-01 1 1  ON 26
 ud_7  1.554983e-01 1 1  ON 27
 ud_8  1.561314e-01 1 1  ON 28
 ud_9  1.546027e-01 1 1  ON 29
ud_10  1.463482e-01 1 1  ON 30
ud_11  1.343275e-01 1 1  ON 31
ud_12  1.181641e-01 1 1  ON 32
ud_13  1.035987e-01 1 1  ON 33
ud_14  1.073254e-01 1 1  ON 34
ud_15  1.470249e-01 1 1  ON 35
ud_16  1.273972e-01 1 1  ON 36
ud_17  1.156841e-01 1 1  ON 37
ud_18  2.709780e-02 1 1  ON 38
ud_19  1.752320e-02 1 1  ON 39
 eH_0 -6.584677e-02 1 1  ON 40
 eH_1 -4.852463e-02 1 1  ON 41
 eH_2 -4.179181e-02 1 1  ON 42
 eH_3 -3.939654e-02 1 1  ON 43
 eH_4 -3.505348e-02 1 1  ON 44
 eH_5 -3.124861e-02 1 1  ON 45
 eH_6 -2.677583e-02 1 1  ON 46
 eH_7 -2.295016e-02 1 1  ON 47
 eH_8 -2.417829e-02 1 1  ON 48
 eH_9 -1.629993e-02 1 1  ON 49
 eO_0 -1.668109e-01 1 1  ON 50
 eO_1 -9.956645e-02 1 1  ON 51
 eO_2 -7.601165e-03 1 1  ON 52
 eO_3  3.988576e-02 1 1  ON 53
 eO_4  1.166901e-01 1 1  ON 54
 eO_5  1.334176e-01 1 1  ON 55
 eO_6  1.611511e-01 1 1  ON 56
 eO_7  1.943649e-01 1 1  ON 57
 eO_8  1.931528e-01 1 1  ON 58
 eO_9  1.281971e-01 1 1  ON 59
  </optVariables>
   Restore the number of walkers to 32, removing 0 walkers.
</opt>
</optimization-report>
  QMC Execution time = 12.63 secs
  Reusing QMCFixedSampleLinearOptimize
 Using QMCCostFunction::QMCCostFunction
 Using Default Cost Function: Cost = <|E-E_ff|^2>

=========================================================
  Start QMCFixedSampleLinearOptimize
  File Root H2O-Tr6.s013 append = no 
=========================================================
  Skip QMCDriver::putQMCInfo 
  Resetting Properties of the walkers 1 x 13

=========================================================
  Start VMC
  File Root H2O-Tr6.s013 append = no 
=========================================================
Using existing walkers 
  Resetting Properties of the walkers 1 x 13

<vmc function="put">
  qmc_counter=8  my_counter=12
  time step      = 5.0000e-01
  blocks         = 80
  steps          = 1
  substeps       = 5
  current        = 0
  target samples = 1.6000e+05
  walkers/mpi    = 32

  stepsbetweensamples = 4
<parameter name="blocks" condition="int">80</parameter>
<parameter name="blocks_between_recompute" condition="int">0</parameter>
<parameter name="check_properties" condition="int">100</parameter>
<parameter name="checkproperties" condition="int">100</parameter>
<parameter name="current" condition="int">0</parameter>
<parameter name="dmcwalkersperthread" condition="real">2.0000e+01</parameter>
<parameter name="maxcpusecs" condition="real">3.6000e+05</parameter>
<parameter name="record_configs" condition="int">0</parameter>
<parameter name="record_walkers" condition="int">4</parameter>
<parameter name="recordconfigs" condition="int">0</parameter>
<parameter name="recordwalkers" condition="int">4</parameter>
<parameter name="rewind" condition="int">0</parameter>
<parameter name="samples" condition="real">1.6000e+05</parameter>
<parameter name="samplesperthread" condition="real">2.0000e+01</parameter>
<parameter name="steps" condition="int">1</parameter>
<parameter name="stepsbetweensamples" condition="int">4</parameter>
<parameter name="store_configs" condition="int">0</parameter>
<parameter name="storeconfigs" condition="int">0</parameter>
<parameter name="sub_steps" condition="int">5</parameter>
<parameter name="substeps" condition="int">5</parameter>
<parameter name="tau" condition="au">5.0000e-01</parameter>
<parameter name="time_step" condition="au">5.0000e-01</parameter>
<parameter name="timestep" condition="au">5.0000e-01</parameter>
<parameter name="use_drift" condition="string">no</parameter>
<parameter name="usedrift" condition="string">no</parameter>
<parameter name="walkers" condition="int">1</parameter>
<parameter name="warmup_steps" condition="int">5</parameter>
<parameter name="warmupsteps" condition="int">5</parameter>
  DumpConfig==false Nothing (configurations, state) will be saved.
  Walker Samples are dumped every 4 steps.
</vmc>
  Set drift_modifier UNR parameter a = 1.0000e+00
  EstimatorManagerBase::add replace LocalEnergy estimator.
  Set drift_modifier UNR parameter a = 1.0000e+00
  EstimatorManagerBase::add replace LocalEnergy estimator.
<optimization-report>
<vmc stage="main" blocks="80">
  Cannot make clones again. Use existing 32 clones
  Initial partition of walkers 0 1 2 3 4 5 6 7 8 9 10 11 12 13 14 15 16 17 18 19 20 21 22 23 24 25 26 27 28 29 30 31 32 
  Using Particle by Particle moves
  Walker moves without drift
  Total Sample Size   =163840
  Walker distribution on root = 0 1 2 3 4 5 6 7 8 9 10 11 12 13 14 15 16 17 18 19 20 21 22 23 24 25 26 27 28 29 30 31 32 
===== Memory Usage after the buffer registration =====
Allocated heap: 512.00 MB, avail. heap: 15743.97 MB
Allocated stack: 0.03 MB, avail. stack: 15743.97 MB
==================================================
====================================================
  SimpleFixedNodeBranch::finalize after a VMC block
    QMC counter        = 13
    time step          = 0.5
    reference energy   = -76.3944
    reference variance = 5.54495
====================================================
  Execution time = 1.1463e+01
</vmc>
<opt stage="setup">
  <log>
   Reading configurations from h5FileRoot H2O-Tr6.s013
  QMCCostFunction is created with 32 threads.
  Using Nonlocal PP in Opt: no
   Number of samples loaded to each thread : 20 20 20 20 20 20 20 20 20 20 20 20 20 20 20 20 20 20 20 20 20 20 20 20 20 20 20 20 20 20 20 20 
  VMC Eavg = -7.6368e+01
  VMC Evar = 5.5439e+00
  Total weights = 1.6384e+05
  Execution time = 1.0257e+00
  </log>
</opt>
<opt stage="main" walkers="163840">
  <log>

*****************************************
Building overlap and Hamiltonian matrices
*****************************************

Among totally 60 optimized parameters, largest LM parameter change : 2.0062e-02 at parameter 13

******************************************************************************
Init Cost =  -6.8176e+01    New Cost =  -6.8178e+01  Delta Cost =  -1.9893e-03
******************************************************************************

The new set of parameters is valid. Updating the trial wave function!

*****************************************************************************
Applying the update for shift_i =   1.0000e-02     and shift_s =   3.9062e-03
*****************************************************************************
  Execution time = 1.2594e+01
  </log>
  <optVariables href="H2O-Tr6.s013.opt.xml">
 uu_0  1.181224e-01 1 1  ON 0
 uu_1  5.851100e-02 1 1  ON 1
 uu_2  2.694096e-02 1 1  ON 2
 uu_3  1.349023e-02 1 1  ON 3
 uu_4  3.756301e-03 1 1  ON 4
 uu_5 -2.992605e-03 1 1  ON 5
 uu_6 -6.444032e-03 1 1  ON 6
 uu_7 -9.546680e-03 1 1  ON 7
 uu_8 -1.404101e-02 1 1  ON 8
 uu_9 -1.245010e-02 1 1  ON 9
uu_10 -9.875349e-03 1 1  ON 10
uu_11 -1.866709e-02 1 1  ON 11
uu_12 -3.146055e-02 1 1  ON 12
uu_13 -3.187472e-02 1 1  ON 13
uu_14 -2.615184e-02 1 1  ON 14
uu_15 -2.252572e-02 1 1  ON 15
uu_16 -5.255870e-02 1 1  ON 16
uu_17 -1.047957e-02 1 1  ON 17
uu_18  2.519772e-03 1 1  ON 18
uu_19  2.669649e-03 1 1  ON 19
 ud_0  2.012555e-01 1 1  ON 20
 ud_1  2.064172e-01 1 1  ON 21
 ud_2  1.743383e-01 1 1  ON 22
 ud_3  1.763646e-01 1 1  ON 23
 ud_4  1.648314e-01 1 1  ON 24
 ud_5  1.580770e-01 1 1  ON 25
 ud_6  1.537559e-01 1 1  ON 26
 ud_7  1.512778e-01 1 1  ON 27
 ud_8  1.502960e-01 1 1  ON 28
 ud_9  1.425968e-01 1 1  ON 29
ud_10  1.392452e-01 1 1  ON 30
ud_11  1.366819e-01 1 1  ON 31
ud_12  1.237626e-01 1 1  ON 32
ud_13  1.196902e-01 1 1  ON 33
ud_14  1.056875e-01 1 1  ON 34
ud_15  1.549352e-01 1 1  ON 35
ud_16  1.339428e-01 1 1  ON 36
ud_17  1.194089e-01 1 1  ON 37
ud_18  2.756299e-02 1 1  ON 38
ud_19  1.859023e-02 1 1  ON 39
 eH_0 -6.841638e-02 1 1  ON 40
 eH_1 -4.760412e-02 1 1  ON 41
 eH_2 -3.904935e-02 1 1  ON 42
 eH_3 -3.126375e-02 1 1  ON 43
 eH_4 -2.702101e-02 1 1  ON 44
 eH_5 -2.294862e-02 1 1  ON 45
 eH_6 -1.801699e-02 1 1  ON 46
 eH_7 -1.172310e-02 1 1  ON 47
 eH_8 -1.134422e-02 1 1  ON 48
 eH_9 -9.965475e-03 1 1  ON 49
 eO_0 -1.578597e-01 1 1  ON 50
 eO_1 -9.660153e-02 1 1  ON 51
 eO_2 -4.586572e-03 1 1  ON 52
 eO_3  3.850719e-02 1 1  ON 53
 eO_4  1.095392e-01 1 1  ON 54
 eO_5  1.262626e-01 1 1  ON 55
 eO_6  1.479623e-01 1 1  ON 56
 eO_7  1.865467e-01 1 1  ON 57
 eO_8  1.817206e-01 1 1  ON 58
 eO_9  1.372730e-01 1 1  ON 59
  </optVariables>
   Restore the number of walkers to 32, removing 0 walkers.
</opt>
</optimization-report>
  QMC Execution time = 12.63 secs
  Reusing QMCFixedSampleLinearOptimize
 Using QMCCostFunction::QMCCostFunction
 Using Default Cost Function: Cost = <|E-E_ff|^2>

=========================================================
  Start QMCFixedSampleLinearOptimize
  File Root H2O-Tr6.s014 append = no 
=========================================================
  Skip QMCDriver::putQMCInfo 
  Resetting Properties of the walkers 1 x 13

=========================================================
  Start VMC
  File Root H2O-Tr6.s014 append = no 
=========================================================
Using existing walkers 
  Resetting Properties of the walkers 1 x 13

<vmc function="put">
  qmc_counter=9  my_counter=13
  time step      = 5.0000e-01
  blocks         = 80
  steps          = 1
  substeps       = 5
  current        = 0
  target samples = 1.6000e+05
  walkers/mpi    = 32

  stepsbetweensamples = 4
<parameter name="blocks" condition="int">80</parameter>
<parameter name="blocks_between_recompute" condition="int">0</parameter>
<parameter name="check_properties" condition="int">100</parameter>
<parameter name="checkproperties" condition="int">100</parameter>
<parameter name="current" condition="int">0</parameter>
<parameter name="dmcwalkersperthread" condition="real">2.0000e+01</parameter>
<parameter name="maxcpusecs" condition="real">3.6000e+05</parameter>
<parameter name="record_configs" condition="int">0</parameter>
<parameter name="record_walkers" condition="int">4</parameter>
<parameter name="recordconfigs" condition="int">0</parameter>
<parameter name="recordwalkers" condition="int">4</parameter>
<parameter name="rewind" condition="int">0</parameter>
<parameter name="samples" condition="real">1.6000e+05</parameter>
<parameter name="samplesperthread" condition="real">2.0000e+01</parameter>
<parameter name="steps" condition="int">1</parameter>
<parameter name="stepsbetweensamples" condition="int">4</parameter>
<parameter name="store_configs" condition="int">0</parameter>
<parameter name="storeconfigs" condition="int">0</parameter>
<parameter name="sub_steps" condition="int">5</parameter>
<parameter name="substeps" condition="int">5</parameter>
<parameter name="tau" condition="au">5.0000e-01</parameter>
<parameter name="time_step" condition="au">5.0000e-01</parameter>
<parameter name="timestep" condition="au">5.0000e-01</parameter>
<parameter name="use_drift" condition="string">no</parameter>
<parameter name="usedrift" condition="string">no</parameter>
<parameter name="walkers" condition="int">1</parameter>
<parameter name="warmup_steps" condition="int">5</parameter>
<parameter name="warmupsteps" condition="int">5</parameter>
  DumpConfig==false Nothing (configurations, state) will be saved.
  Walker Samples are dumped every 4 steps.
</vmc>
  Set drift_modifier UNR parameter a = 1.0000e+00
  EstimatorManagerBase::add replace LocalEnergy estimator.
  Set drift_modifier UNR parameter a = 1.0000e+00
  EstimatorManagerBase::add replace LocalEnergy estimator.
<optimization-report>
<vmc stage="main" blocks="80">
  Cannot make clones again. Use existing 32 clones
  Initial partition of walkers 0 1 2 3 4 5 6 7 8 9 10 11 12 13 14 15 16 17 18 19 20 21 22 23 24 25 26 27 28 29 30 31 32 
  Using Particle by Particle moves
  Walker moves without drift
  Total Sample Size   =163840
  Walker distribution on root = 0 1 2 3 4 5 6 7 8 9 10 11 12 13 14 15 16 17 18 19 20 21 22 23 24 25 26 27 28 29 30 31 32 
===== Memory Usage after the buffer registration =====
Allocated heap: 512.00 MB, avail. heap: 15743.97 MB
Allocated stack: 0.03 MB, avail. stack: 15743.97 MB
==================================================
====================================================
  SimpleFixedNodeBranch::finalize after a VMC block
    QMC counter        = 14
    time step          = 0.5
    reference energy   = -76.3983
    reference variance = 4.82027
====================================================
  Execution time = 1.1459e+01
</vmc>
<opt stage="setup">
  <log>
   Reading configurations from h5FileRoot H2O-Tr6.s014
  QMCCostFunction is created with 32 threads.
  Using Nonlocal PP in Opt: no
   Number of samples loaded to each thread : 20 20 20 20 20 20 20 20 20 20 20 20 20 20 20 20 20 20 20 20 20 20 20 20 20 20 20 20 20 20 20 20 
  VMC Eavg = -7.6370e+01
  VMC Evar = 5.8362e+00
  Total weights = 1.6384e+05
  Execution time = 1.0259e+00
  </log>
</opt>
<opt stage="main" walkers="163840">
  <log>

*****************************************
Building overlap and Hamiltonian matrices
*****************************************

Among totally 60 optimized parameters, largest LM parameter change : 3.5875e+02 at parameter 19

******************************************************************************
Init Cost =  -6.8149e+01    New Cost =   5.8754e+06  Delta Cost =   5.8754e+06
******************************************************************************

The new set of parameters is not valid. Revert to the old set!

*****************************************************************************
Applying the update for shift_i =   1.0000e-02     and shift_s =   1.5625e-02
*****************************************************************************
  Execution time = 1.2597e+01
  </log>
  <optVariables href="H2O-Tr6.s014.opt.xml">
 uu_0  1.181224e-01 1 1  ON 0
 uu_1  5.851100e-02 1 1  ON 1
 uu_2  2.694096e-02 1 1  ON 2
 uu_3  1.349023e-02 1 1  ON 3
 uu_4  3.756301e-03 1 1  ON 4
 uu_5 -2.992605e-03 1 1  ON 5
 uu_6 -6.444032e-03 1 1  ON 6
 uu_7 -9.546680e-03 1 1  ON 7
 uu_8 -1.404101e-02 1 1  ON 8
 uu_9 -1.245010e-02 1 1  ON 9
uu_10 -9.875349e-03 1 1  ON 10
uu_11 -1.866709e-02 1 1  ON 11
uu_12 -3.146055e-02 1 1  ON 12
uu_13 -3.187472e-02 1 1  ON 13
uu_14 -2.615184e-02 1 1  ON 14
uu_15 -2.252572e-02 1 1  ON 15
uu_16 -5.255870e-02 1 1  ON 16
uu_17 -1.047957e-02 1 1  ON 17
uu_18  2.519772e-03 1 1  ON 18
uu_19  2.669649e-03 1 1  ON 19
 ud_0  2.012555e-01 1 1  ON 20
 ud_1  2.064172e-01 1 1  ON 21
 ud_2  1.743383e-01 1 1  ON 22
 ud_3  1.763646e-01 1 1  ON 23
 ud_4  1.648314e-01 1 1  ON 24
 ud_5  1.580770e-01 1 1  ON 25
 ud_6  1.537559e-01 1 1  ON 26
 ud_7  1.512778e-01 1 1  ON 27
 ud_8  1.502960e-01 1 1  ON 28
 ud_9  1.425968e-01 1 1  ON 29
ud_10  1.392452e-01 1 1  ON 30
ud_11  1.366819e-01 1 1  ON 31
ud_12  1.237626e-01 1 1  ON 32
ud_13  1.196902e-01 1 1  ON 33
ud_14  1.056875e-01 1 1  ON 34
ud_15  1.549352e-01 1 1  ON 35
ud_16  1.339428e-01 1 1  ON 36
ud_17  1.194089e-01 1 1  ON 37
ud_18  2.756299e-02 1 1  ON 38
ud_19  1.859023e-02 1 1  ON 39
 eH_0 -6.841638e-02 1 1  ON 40
 eH_1 -4.760412e-02 1 1  ON 41
 eH_2 -3.904935e-02 1 1  ON 42
 eH_3 -3.126375e-02 1 1  ON 43
 eH_4 -2.702101e-02 1 1  ON 44
 eH_5 -2.294862e-02 1 1  ON 45
 eH_6 -1.801699e-02 1 1  ON 46
 eH_7 -1.172310e-02 1 1  ON 47
 eH_8 -1.134422e-02 1 1  ON 48
 eH_9 -9.965475e-03 1 1  ON 49
 eO_0 -1.578597e-01 1 1  ON 50
 eO_1 -9.660153e-02 1 1  ON 51
 eO_2 -4.586572e-03 1 1  ON 52
 eO_3  3.850719e-02 1 1  ON 53
 eO_4  1.095392e-01 1 1  ON 54
 eO_5  1.262626e-01 1 1  ON 55
 eO_6  1.479623e-01 1 1  ON 56
 eO_7  1.865467e-01 1 1  ON 57
 eO_8  1.817206e-01 1 1  ON 58
 eO_9  1.372730e-01 1 1  ON 59
  </optVariables>
   Restore the number of walkers to 32, removing 0 walkers.
</opt>
</optimization-report>
  QMC Execution time = 12.63 secs
  Total Execution time = 156.6 secs

=========================================================
  A new xml input file : H2O-Tr6.s014.cont.xml
